<LesHouchesEvents version="1.0">
<!--
File generated with CalcHEP-PYTHIA interface
-->
<header>
<hepml>
<samples xmlns="http://mcdb.cern.ch/hepml/0.2/"
    xmlns:xsi="http://www.w3.org/2001/XMLSchema-instance"
    xsi:schemaLocation="http://mcdb.cern.ch/hepml/0.2/ http://mcdb.cern.ch/hepml/0.2/hepml.xsd">
    <files>
        <file>
            <eventsNumber> 1000          </eventsNumber>
            <crossSection unit="pb">7.6479E-02</crossSection>
            <fileSize> 698343           </fileSize>
            <comments> </comments>
            <location>
            </location>
        </file>
    </files>
    <description>
        <title>  </title>
        <abstract> </abstract>
        <authorComments> </authorComments>
	<experimentGroup>
	    <experiment> </experiment>
	    <group> </group>
	    <responsiblePerson> </responsiblePerson>
	    <description>  </description>
	</experimentGroup>
        <generator>
            <name>CalcHEP</name>
            <version> 3.8.5 </version>
            <homepage>http://theory.sinp.msu.ru/~pukhov/calchep.html</homepage>
            <description>
 CalcHEP - a package for calculation of Feynman diagrams
 integration over multi-particle phase space,
 generation of events and application of decay processes
            </description>
        </generator>
        <model>
             <name> </name>
             <description>B-L (Full fast)</description>
            <parameters>
                <parameter>
                    <name>EE</name>
                    <value>0.313330</value>
			      <notation>
				      <plain> </plain>
				      <Latex> </Latex>
			      </notation>
			      <description> </description>
                </parameter>
                <parameter>
                    <name>SW</name>
                    <value>0.474000</value>
			      <notation>
				      <plain> </plain>
				      <Latex> </Latex>
			      </notation>
			      <description> </description>
                </parameter>
                <parameter>
                    <name>s12</name>
                    <value>0.221000</value>
			      <notation>
				      <plain> </plain>
				      <Latex> </Latex>
			      </notation>
			      <description> </description>
                </parameter>
                <parameter>
                    <name>s23</name>
                    <value>0.040000</value>
			      <notation>
				      <plain> </plain>
				      <Latex> </Latex>
			      </notation>
			      <description> </description>
                </parameter>
                <parameter>
                    <name>s13</name>
                    <value>0.003500</value>
			      <notation>
				      <plain> </plain>
				      <Latex> </Latex>
			      </notation>
			      <description> </description>
                </parameter>
                <parameter>
                    <name>g1p</name>
                    <value>0.200000</value>
			      <notation>
				      <plain> </plain>
				      <Latex> </Latex>
			      </notation>
			      <description> </description>
                </parameter>
                <parameter>
                    <name>gt</name>
                    <value>-0.100000</value>
			      <notation>
				      <plain> </plain>
				      <Latex> </Latex>
			      </notation>
			      <description> </description>
                </parameter>
                <parameter>
                    <name>MZp</name>
                    <value>1000.000000</value>
			      <notation>
				      <plain> </plain>
				      <Latex> </Latex>
			      </notation>
			      <description> </description>
                </parameter>
                <parameter>
                    <name>Sa</name>
                    <value>0.100000</value>
			      <notation>
				      <plain> </plain>
				      <Latex> </Latex>
			      </notation>
			      <description> </description>
                </parameter>
                <parameter>
                    <name>wms</name>
                    <value>80.292000</value>
			      <notation>
				      <plain> </plain>
				      <Latex> </Latex>
			      </notation>
			      <description> </description>
                </parameter>
                <parameter>
                    <name>wZ</name>
                    <value>2.502000</value>
			      <notation>
				      <plain> </plain>
				      <Latex> </Latex>
			      </notation>
			      <description> </description>
                </parameter>
                <parameter>
                    <name>wW</name>
                    <value>2.094000</value>
			      <notation>
				      <plain> </plain>
				      <Latex> </Latex>
			      </notation>
			      <description> </description>
                </parameter>
                <parameter>
                    <name>Me</name>
                    <value>0.000511</value>
			      <notation>
				      <plain> </plain>
				      <Latex> </Latex>
			      </notation>
			      <description> </description>
                </parameter>
                <parameter>
                    <name>Mm</name>
                    <value>0.105700</value>
			      <notation>
				      <plain> </plain>
				      <Latex> </Latex>
			      </notation>
			      <description> </description>
                </parameter>
                <parameter>
                    <name>Mt</name>
                    <value>1.777000</value>
			      <notation>
				      <plain> </plain>
				      <Latex> </Latex>
			      </notation>
			      <description> </description>
                </parameter>
                <parameter>
                    <name>Ml1</name>
                    <value>0.000000</value>
			      <notation>
				      <plain> </plain>
				      <Latex> </Latex>
			      </notation>
			      <description> </description>
                </parameter>
                <parameter>
                    <name>Ml2</name>
                    <value>0.000000</value>
			      <notation>
				      <plain> </plain>
				      <Latex> </Latex>
			      </notation>
			      <description> </description>
                </parameter>
                <parameter>
                    <name>Ml3</name>
                    <value>0.000000</value>
			      <notation>
				      <plain> </plain>
				      <Latex> </Latex>
			      </notation>
			      <description> </description>
                </parameter>
                <parameter>
                    <name>Mn1</name>
                    <value>200.000000</value>
			      <notation>
				      <plain> </plain>
				      <Latex> </Latex>
			      </notation>
			      <description> </description>
                </parameter>
                <parameter>
                    <name>Mn2</name>
                    <value>200.000000</value>
			      <notation>
				      <plain> </plain>
				      <Latex> </Latex>
			      </notation>
			      <description> </description>
                </parameter>
                <parameter>
                    <name>Mn3</name>
                    <value>200.000000</value>
			      <notation>
				      <plain> </plain>
				      <Latex> </Latex>
			      </notation>
			      <description> </description>
                </parameter>
                <parameter>
                    <name>Mc</name>
                    <value>1.300000</value>
			      <notation>
				      <plain> </plain>
				      <Latex> </Latex>
			      </notation>
			      <description> </description>
                </parameter>
                <parameter>
                    <name>Ms</name>
                    <value>0.200000</value>
			      <notation>
				      <plain> </plain>
				      <Latex> </Latex>
			      </notation>
			      <description> </description>
                </parameter>
                <parameter>
                    <name>Mtop</name>
                    <value>170.000000</value>
			      <notation>
				      <plain> </plain>
				      <Latex> </Latex>
			      </notation>
			      <description> </description>
                </parameter>
                <parameter>
                    <name>wtop</name>
                    <value>1.442000</value>
			      <notation>
				      <plain> </plain>
				      <Latex> </Latex>
			      </notation>
			      <description> </description>
                </parameter>
                <parameter>
                    <name>Mb</name>
                    <value>4.300000</value>
			      <notation>
				      <plain> </plain>
				      <Latex> </Latex>
			      </notation>
			      <description> </description>
                </parameter>
                <parameter>
                    <name>MH1</name>
                    <value>120.000000</value>
			      <notation>
				      <plain> </plain>
				      <Latex> </Latex>
			      </notation>
			      <description> </description>
                </parameter>
                <parameter>
                    <name>MH2</name>
                    <value>450.000000</value>
			      <notation>
				      <plain> </plain>
				      <Latex> </Latex>
			      </notation>
			      <description> </description>
                </parameter>
            </parameters>
        </model>
        <process>
            <beam1>
                <particle KFcode="2212">p</particle>
                <energy unit="GeV">6.500E+03</energy>
                <pdf name= "cteq6l1(proton)"> </pdf>
            </beam1>
            <beam2>
                <particle KFcode="2212">p</particle>
                <energy unit="GeV">6.500E+03</energy>
                <pdf name= "cteq6l1(proton)"> </pdf>
            </beam2>
	    <finalState>
		<state>
                </state>
		<notation>
		    <plain>
                   </plain>
		    <Latex> </Latex>
		</notation>
	    </finalState>
            <crossSection unit="pb">7.648E-02</crossSection>
            <subprocesses>
              <subprocess cutset_id="1" >
                <notation> S(-3),s(3) -> m(13),M(-13) </notation>
                <crossSection unit="pb"> 2.503370E-03 </crossSection>
              </subprocess>
              <subprocess cutset_id="2" >
                <notation> b(5),B(-5) -> m(13),M(-13) </notation>
                <crossSection unit="pb"> 3.881343E-04 </crossSection>
              </subprocess>
              <subprocess cutset_id="3" >
                <notation> U(-2),u(2) -> m(13),M(-13) </notation>
                <crossSection unit="pb"> 9.079387E-03 </crossSection>
              </subprocess>
              <subprocess cutset_id="4" >
                <notation> u(2),U(-2) -> m(13),M(-13) </notation>
                <crossSection unit="pb"> 9.075275E-03 </crossSection>
              </subprocess>
              <subprocess cutset_id="5" >
                <notation> B(-5),b(5) -> m(13),M(-13) </notation>
                <crossSection unit="pb"> 3.881997E-04 </crossSection>
              </subprocess>
              <subprocess cutset_id="6" >
                <notation> s(3),S(-3) -> m(13),M(-13) </notation>
                <crossSection unit="pb"> 2.500979E-03 </crossSection>
              </subprocess>
              <subprocess cutset_id="7" >
                <notation> d(1),D(-1) -> m(13),M(-13) </notation>
                <crossSection unit="pb"> 2.609524E-02 </crossSection>
              </subprocess>
              <subprocess cutset_id="8" >
                <notation> c(4),C(-4) -> m(13),M(-13) </notation>
                <crossSection unit="pb"> 1.849646E-04 </crossSection>
              </subprocess>
              <subprocess cutset_id="9" >
                <notation> C(-4),c(4) -> m(13),M(-13) </notation>
                <crossSection unit="pb"> 1.849730E-04 </crossSection>
              </subprocess>
              <subprocess cutset_id="10" >
                <notation> D(-1),d(1) -> m(13),M(-13) </notation>
                <crossSection unit="pb"> 2.607823E-02 </crossSection>
              </subprocess>
            </subprocesses>
        </process>
        <cuts>
            <cutSet cutset_id="1">
                <cut>
                    <object>
                        <name> </name>
                        <notation>
                            <plain> </plain>
                            <Latex> </Latex>
                        </notation>
                    </object>
                    <minValue> </minValue>
                    <maxValue> </maxValue>
                    <logic> </logic>
                </cut>
            </cutSet>
        </cuts>
        <authors>
       	   <author>
       	      <firstName>CalcHEP</firstName>
              <lastName> </lastName>
              <email>calchep[at]goolegroups.com</email>  
              <experiment> </experiment>
              <group> </group>
       	      <organization> </organization>
   	   </author>
         </authors>
    </description>
</samples>
</hepml>
<slha>
BLOCK QNUMBERS 9910032 # Zp
 1 0
 2 3
 3 1
 4 0

BLOCK QNUMBERS 9910012 # ~n1
 1 0
 2 2
 3 1
 4 0

BLOCK QNUMBERS 9910014 # ~n2
 1 0
 2 2
 3 1
 4 0

BLOCK QNUMBERS 9910016 # ~n3
 1 0
 2 2
 3 1
 4 0

BLOCK QNUMBERS 9910025 # H1
 1 0
 2 1
 3 1
 4 0

BLOCK QNUMBERS 9910026 # H2
 1 0
 2 1
 3 1
 4 0

BLOCK MASS
 22    0.000000E+00 # 
 23    9.117974E+01 # 
 21    0.000000E+00 # 
 24    8.029200E+01 # 
 9910032    1.000000E+03 # 
 11    5.110000E-04 # 
 13    1.057000E-01 # 
 15    1.777000E+00 # 
 12    1.000000E-09 # 
 14    1.000000E-09 # 
 16    1.000000E-09 # 
 9910012    2.000000E+02 # 
 9910014    2.000000E+02 # 
 9910016    2.000000E+02 # 
 2    0.000000E+00 # 
 1    0.000000E+00 # 
 4    1.300000E+00 # 
 3    2.000000E-01 # 
 6    1.700000E+02 # 
 5    4.300000E+00 # 
 9910025    1.200000E+02 # 
 9910026    4.500000E+02 # 

DECAY 9910032  5.228255E+00 # Zp 
   9.495430E-02  2  1  -1  # d,D 
   9.495430E-02  2  3  -3  # s,S 
   9.495323E-02  2  5  -5  # b,B 
   8.252545E-02  2  11  -11  # e,E 
   8.252545E-02  2  13  -13  # m,M 
   8.252540E-02  2  15  -15  # l,L 
   7.811970E-02  2  9910012  9910012  # ~n1,~n1 
   7.811970E-02  2  9910014  9910014  # ~n2,~n2 
   7.811970E-02  2  9910016  9910016  # ~n3,~n3 
   5.675879E-02  2  12  12  # n1,n1 
   5.675879E-02  2  14  14  # n2,n2 
   5.675879E-02  2  16  16  # n3,n3 
   1.925006E-02  2  2  -2  # u,U 
   1.924994E-02  2  4  -4  # c,C 
   1.757221E-02  2  6  -6  # t,T 
   3.501757E-03  2  24  -24  # W+,W- 
   3.352465E-03  2  23  9910025  # Z,H1 
   1.982740E-08  2  23  9910026  # Z,H2 
   2.914200E-12  2  12  9910012  # n1,~n1 
   2.914200E-12  2  14  9910014  # n2,~n2 
   2.914200E-12  2  16  9910016  # n3,~n3 
DECAY 9910012  4.267417E-11 # ~n1 
   2.940078E-01  2  24  11  # W+,e 
   2.940078E-01  2  -24  -11  # W-,E 
   2.813357E-01  2  23  12  # Z,n1 
   1.306487E-01  2  12  9910025  # n1,H1 
DECAY 9910014  4.267415E-11 # ~n2 
   2.940077E-01  2  24  13  # W+,m 
   2.940077E-01  2  -24  -13  # W-,M 
   2.813359E-01  2  23  14  # Z,n2 
   1.306488E-01  2  14  9910025  # n2,H1 
DECAY 9910016  4.266762E-11 # ~n3 
   2.939761E-01  2  24  15  # W+,l 
   2.939761E-01  2  -24  -15  # W-,L 
   2.813789E-01  2  23  16  # Z,n3 
   1.306688E-01  2  16  9910025  # n3,H1 
DECAY 9910025  5.629130E-03 # H1 
   7.832162E-01  2  5  -5  # b,B 
   8.807615E-02  2  24  -24  # W+,W- 
   7.209084E-02  2  4  -4  # c,C 
   4.487260E-02  2  15  -15  # l,L 
   9.877732E-03  2  23  23  # Z,Z 
   1.707466E-03  2  3  -3  # s,S 
   1.589740E-04  2  13  -13  # m,M 
   3.715523E-09  2  11  -11  # e,E 
   2.873686E-20  2  12  12  # n1,n1 
   2.873686E-20  2  14  14  # n2,n2 
   2.873686E-20  2  16  16  # n3,n3 
DECAY 9910026  6.340182E-01 # H2 
   4.004831E-01  2  24  -24  # W+,W- 
   2.671863E-01  2  9910025  9910025  # H1,H1 
   1.895815E-01  2  23  23  # Z,Z 
   1.166339E-01  2  6  -6  # t,T 
   8.603330E-03  2  9910012  9910012  # ~n1,~n1 
   8.603330E-03  2  9910014  9910014  # ~n2,~n2 
   8.603330E-03  2  9910016  9910016  # ~n3,~n3 
   2.652979E-04  2  5  -5  # b,B 
   2.426050E-05  2  4  -4  # c,C 
   1.510942E-05  2  15  -15  # l,L 
   5.742412E-07  2  3  -3  # s,S 
   5.346425E-08  2  13  -13  # m,M 
   1.249555E-12  2  11  -11  # e,E 
   6.746041E-16  2  12  9910012  # n1,~n1 
   6.746041E-16  2  14  9910014  # n2,~n2 
   6.746041E-16  2  16  9910016  # n3,~n3 
   2.553614E-24  2  12  12  # n1,n1 
   2.553614E-24  2  14  14  # n2,n2 
   2.553614E-24  2  16  16  # n3,n3 
</slha>

<calchep-batch>
<![CDATA[
#########################################
#            Model Info                 #
#########################################
Model:     B-L (Full fast)
#
Gauge:     Unitary


#########################################
#            Processes                  #
#########################################
Process   :    p,p->m,M
Remove    :0: A,H1,H2,Z
Alias :    p=u,U,d,D,s,S,c,C,b,B,G

#########################################
#            PDF's                      #
#########################################
pdf1 :       cteq6l1(proton)
pdf2 :       cteq6l1(proton)


#########################################
#            Momenta                    #
#########################################
p1 :         6500
p2 :         6500


#########################################
#            Parameters                 #
#########################################
Parameter:   EE=0.31333
Parameter:   GG=1.117
Parameter:   SW=0.474
Parameter:   s12=0.221
Parameter:   s23=0.04
Parameter:   s13=0.0035
Parameter:   g1p=0.2
Parameter:   gt=-0.1
Parameter:   MZp=1000
Parameter:   Sa=0.1
Parameter:   wms=80.292
Parameter:   wZ=2.502
Parameter:   wW=2.094
Parameter:   Me=0.000511
Parameter:   Mm=0.1057
Parameter:   Mt=1.777
Parameter:   Ml1=1e-09
Parameter:   Ml2=1e-09
Parameter:   Ml3=1e-09
Parameter:   Mn1=200
Parameter:   Mn2=200
Parameter:   Mn3=200
Parameter:   Mc=1.3
Parameter:   Ms=0.2
Parameter:   Mtop=170
Parameter:   wtop=1.442
Parameter:   Mb=4.3
Parameter:   MH1=120
Parameter:   MH2=450

#########################################
#            QCD running info           #
#########################################
parton dist. alpha : 1
alpha(MZ)          : 0.1172
alpha nf           : 5
alpha order        : 2
mb(mb)             : 4.2
Mtop(pole)         : 175
alpha Fact 1 Q :0: M12
alpha Fact 2 Q :0: M12
alpha Ren Q :0: M12
alpha Show Q :0: M12

#########################################
#            Breit-Wigner               #
#########################################
Breit Wigner range : 2.7
T-channel widths   : OFF
GI in T-channel    : OFF
GI in S-channel    : OFF

#########################################
#            Cuts                       #
#########################################
Cut parameter :0: n(m)
Cut invert    :0: False
Cut min       :0: -100
Cut max       :0: 100
Cut parameter :0: n(M)
Cut invert    :0: False
Cut min       :0: -100
Cut max       :0: 100
Cut parameter :0: M(m,M)
Cut invert    :0: False
Cut min       :0: 50
Cut max       :0: 

#########################################
#            Kinematics                 #
#########################################
Kinematics :0: 12->3,4

#########################################
#            Regularization             #
#########################################
Regularization momentum :0: 34
Regularization mass     :0: MZp
Regularization width    :0: wZp
Regularization power    :0: 2

#########################################
#            Distributions              #
#########################################
Dist parameter          : M(m,M)
Dist min                : 400
Dist max                : 3000
Dist n bins             : 150
Dist title              : p,p->m,M 
Dist x-title            : Massa invariante (GeV)

Dist parameter          : T(m)
Dist min                : 0
Dist max                : 600
Dist n bins             : 150
Dist title              : p,p->m,M 
Dist x-title            : Momentum Transverso (GeV)

Dist parameter          : N(m)
Dist min                : -3.14
Dist max                : 3.14
Dist n bins             : 150
Dist title              : p,p->m,M 
Dist x-title            : Rapidez 

Dist parameter          : Y(m,M)
Dist min                : -3.14
Dist max                : 3.14
Dist n bins             : 150
Dist title              : p,p->m,M 
Dist x-title            : Pseudo-rapidez 


#########################################
#            Events Generation          #
#########################################
Number of events (per run step): 1000
Max lumi [1/fb]                : 1000000000
Filename                       : zprime_mm_events-MZp1000
Cleanup                        : False

#########################################
#            Parallelization info       #
#########################################
Parallelization method : local
Que                    : 
Walltime               : 0
Memory                 : 0
email                  : 
Max number of cpus     : 1
sleep time             : 3
nice level             : 19

#########################################
#            Vegas                      #
#########################################
nSess_1  : 20
nCalls_1 : 100000
nSess_2  : 20
nCalls_2 : 100000

#########################################
#           Event Generator             #
#########################################
sub-cubes      : 10000
MAX*N          : 2.000000
find new MAX   : 50

]]>
</calchep-batch>
</header>
<init>
  2212  2212  6.50000007388E+03  6.50000007388E+03    -1    -1    -1    -1    -4     1
  7.64787526000E-02  0.00000000000E+00  1.00000000000E+00   1
</init>
<event>
 4    1   7.6478753E-02   1.0020000E+03  -1.0000000E+00   9.4080000E-02
        1   -1    0    0  500    0  0.00000000000E+00  0.00000000000E+00  1.53840183490E+02  1.53840183490E+02  0.00000000000E+00  0.0000E+00  9.0
       -1   -1    0    0    0  500  0.00000000000E+00  0.00000000000E+00 -1.63101969300E+03  1.63101969300E+03  0.00000000000E+00  0.0000E+00  9.0
       13    1    1    2    0    0  2.90784999800E+02  2.23220293830E+02 -1.30406634830E+02  3.89087544476E+02  1.05700000000E-01  0.0000E+00  9.0
      -13    1    1    2    0    0 -2.90784999800E+02 -2.23220293830E+02 -1.34677287470E+03  1.39577233204E+03  1.05700000000E-01  0.0000E+00  9.0
</event>
<event>
 4    1   7.6478753E-02   1.0010000E+03  -1.0000000E+00   9.4090000E-02
        1   -1    0    0  500    0  0.00000000000E+00  0.00000000000E+00  5.89513219350E+02  5.89513219350E+02  0.00000000000E+00  0.0000E+00  9.0
       -1   -1    0    0    0  500  0.00000000000E+00  0.00000000000E+00 -4.25040666080E+02  4.25040666080E+02  0.00000000000E+00  0.0000E+00  9.0
       13    1    1    2    0    0  1.29275460790E+02  9.49880172740E+00  5.72209762810E+02  5.86708101039E+02  1.05700000000E-01  0.0000E+00  9.0
      -13    1    1    2    0    0 -1.29275460790E+02 -9.49880172740E+00 -4.07737209550E+02  4.27845784391E+02  1.05700000000E-01  0.0000E+00  9.0
</event>
<event>
 4    1   7.6478753E-02   9.9470000E+02  -1.0000000E+00   9.4160000E-02
        1   -1    0    0  500    0  0.00000000000E+00  0.00000000000E+00  4.14470757940E+02  4.14470757940E+02  0.00000000000E+00  0.0000E+00  9.0
       -1   -1    0    0    0  500  0.00000000000E+00  0.00000000000E+00 -5.96764076860E+02  5.96764076860E+02  0.00000000000E+00  0.0000E+00  9.0
       13    1    1    2    0    0 -1.81281639050E+02 -2.96460894550E+02  2.70572897310E+02  4.40410942854E+02  1.05700000000E-01  0.0000E+00  9.0
      -13    1    1    2    0    0  1.81281639050E+02  2.96460894550E+02 -4.52866216230E+02  5.70823891957E+02  1.05700000000E-01  0.0000E+00  9.0
</event>
<event>
 4    1   7.6478753E-02   1.0040000E+03  -1.0000000E+00   9.4050000E-02
       -1   -1    0    0    0  500  0.00000000000E+00  0.00000000000E+00  1.10870429990E+02  1.10870429990E+02  0.00000000000E+00  0.0000E+00  9.0
        1   -1    0    0  500    0  0.00000000000E+00  0.00000000000E+00 -2.27502495980E+03  2.27502495980E+03  0.00000000000E+00  0.0000E+00  9.0
       13    1    1    2    0    0  3.79578368700E+02  2.91382275750E+02 -7.19894030020E+02  8.64425123557E+02  1.05700000000E-01  0.0000E+00  9.0
      -13    1    1    2    0    0 -3.79578368700E+02 -2.91382275750E+02 -1.44426049980E+03  1.52147026624E+03  1.05700000000E-01  0.0000E+00  9.0
</event>
<event>
 4    1   7.6478753E-02   7.1000000E+02  -1.0000000E+00   9.7950000E-02
        1   -1    0    0  500    0  0.00000000000E+00  0.00000000000E+00  1.05964453640E+03  1.05964453640E+03  0.00000000000E+00  0.0000E+00  9.0
       -1   -1    0    0    0  500  0.00000000000E+00  0.00000000000E+00 -1.18947771510E+02  1.18947771510E+02  0.00000000000E+00  0.0000E+00  9.0
       13    1    1    2    0    0 -1.19702013580E+02 -3.28538092860E+02  5.72352987620E+02  6.70711416427E+02  1.05700000000E-01  0.0000E+00  9.0
      -13    1    1    2    0    0  1.19702013580E+02  3.28538092860E+02  3.68343777250E+02  5.07880891476E+02  1.05700000000E-01  0.0000E+00  9.0
</event>
<event>
 4    1   7.6478753E-02   9.9700000E+02  -1.0000000E+00   9.4130000E-02
        2   -1    0    0  500    0  0.00000000000E+00  0.00000000000E+00  1.14608870950E+03  1.14608870950E+03  0.00000000000E+00  0.0000E+00  9.0
       -2   -1    0    0    0  500  0.00000000000E+00  0.00000000000E+00 -2.16844866170E+02  2.16844866170E+02  0.00000000000E+00  0.0000E+00  9.0
       13    1    1    2    0    0 -3.50559927910E+02 -3.52729228570E+02  4.17007367890E+02  6.49003334191E+02  1.05700000000E-01  0.0000E+00  9.0
      -13    1    1    2    0    0  3.50559927910E+02  3.52729228570E+02  5.12236475400E+02  7.13930241443E+02  1.05700000000E-01  0.0000E+00  9.0
</event>
<event>
 4    1   7.6478753E-02   9.9350000E+02  -1.0000000E+00   9.4170000E-02
       -4   -1    0    0    0  500  0.00000000000E+00  0.00000000000E+00  5.34707063600E+02  5.34708643902E+02  1.30000000000E+00  0.0000E+00  9.0
        4   -1    0    0  500    0  0.00000000000E+00  0.00000000000E+00 -4.61523380630E+02  4.61525211520E+02  1.30000000000E+00  0.0000E+00  9.0
       13    1    1    2    0    0 -3.48399190120E+02 -3.50555119910E+02 -1.36499110700E+01  4.94426151226E+02  1.05700000000E-01  0.0000E+00  9.0
      -13    1    1    2    0    0  3.48399190120E+02  3.50555119910E+02  8.68335940430E+01  5.01807704204E+02  1.05700000000E-01  0.0000E+00  9.0
</event>
<event>
 4    1   7.6478753E-02   9.9530000E+02  -1.0000000E+00   9.4150000E-02
        1   -1    0    0  500    0  0.00000000000E+00  0.00000000000E+00  6.50789047870E+02  6.50789047870E+02  0.00000000000E+00  0.0000E+00  9.0
       -1   -1    0    0    0  500  0.00000000000E+00  0.00000000000E+00 -3.80568227820E+02  3.80568227820E+02  0.00000000000E+00  0.0000E+00  9.0
       13    1    1    2    0    0  1.46792693900E+02  6.12778732840E+01  6.23737441470E+02  6.43701390243E+02  1.05700000000E-01  0.0000E+00  9.0
      -13    1    1    2    0    0 -1.46792693900E+02 -6.12778732840E+01 -3.53516621420E+02  3.87655885457E+02  1.05700000000E-01  0.0000E+00  9.0
</event>
<event>
 4    1   7.6478753E-02   1.0040000E+03  -1.0000000E+00   9.4050000E-02
       -1   -1    0    0    0  500  0.00000000000E+00  0.00000000000E+00  8.53578933560E+02  8.53578933560E+02  0.00000000000E+00  0.0000E+00  9.0
        1   -1    0    0  500    0  0.00000000000E+00  0.00000000000E+00 -2.95215629090E+02  2.95215629090E+02  0.00000000000E+00  0.0000E+00  9.0
       13    1    1    2    0    0  4.75860790120E+02  3.49649289020E+01  4.57639851650E+02  6.61135600930E+02  1.05700000000E-01  0.0000E+00  9.0
      -13    1    1    2    0    0 -4.75860790120E+02 -3.49649289020E+01  1.00723452810E+02  4.87658961719E+02  1.05700000000E-01  0.0000E+00  9.0
</event>
<event>
 4    1   7.6478753E-02   1.0030000E+03  -1.0000000E+00   9.4060000E-02
       -2   -1    0    0    0  500  0.00000000000E+00  0.00000000000E+00  1.68180313930E+03  1.68180313930E+03  0.00000000000E+00  0.0000E+00  9.0
        2   -1    0    0  500    0  0.00000000000E+00  0.00000000000E+00 -1.49665215980E+02  1.49665215980E+02  0.00000000000E+00  0.0000E+00  9.0
       13    1    1    2    0    0  1.24976583250E+02  9.59379254580E+01  1.63547673700E+03  1.64304820390E+03  1.05700000000E-01  0.0000E+00  9.0
      -13    1    1    2    0    0 -1.24976583250E+02 -9.59379254580E+01 -1.03338813610E+02  1.88420151451E+02  1.05700000000E-01  0.0000E+00  9.0
</event>
<event>
 4    1   7.6478753E-02   9.9910000E+02  -1.0000000E+00   9.4110000E-02
       -1   -1    0    0    0  500  0.00000000000E+00  0.00000000000E+00  1.42738977490E+02  1.42738977490E+02  0.00000000000E+00  0.0000E+00  9.0
        1   -1    0    0  500    0  0.00000000000E+00  0.00000000000E+00 -1.74825049120E+03  1.74825049120E+03  0.00000000000E+00  0.0000E+00  9.0
       13    1    1    2    0    0  3.65842062650E+02  2.74252211570E+02 -4.21906272520E+02  6.22141145014E+02  1.05700000000E-01  0.0000E+00  9.0
      -13    1    1    2    0    0 -3.65842062650E+02 -2.74252211570E+02 -1.18360524120E+03  1.26884832369E+03  1.05700000000E-01  0.0000E+00  9.0
</event>
<event>
 4    1   7.6478753E-02   9.9580000E+02  -1.0000000E+00   9.4140000E-02
        1   -1    0    0  500    0  0.00000000000E+00  0.00000000000E+00  4.00805637690E+02  4.00805637690E+02  0.00000000000E+00  0.0000E+00  9.0
       -1   -1    0    0    0  500  0.00000000000E+00  0.00000000000E+00 -6.18524083040E+02  6.18524083040E+02  0.00000000000E+00  0.0000E+00  9.0
       13    1    1    2    0    0  1.11151958150E+02 -2.56702367670E+02 -5.30483343320E+02  5.99719477823E+02  1.05700000000E-01  0.0000E+00  9.0
      -13    1    1    2    0    0 -1.11151958150E+02  2.56702367670E+02  3.12764897980E+02  4.19610242903E+02  1.05700000000E-01  0.0000E+00  9.0
</event>
<event>
 4    1   7.6478753E-02   9.9580000E+02  -1.0000000E+00   9.4140000E-02
        1   -1    0    0  500    0  0.00000000000E+00  0.00000000000E+00  2.22563053730E+03  2.22563053730E+03  0.00000000000E+00  0.0000E+00  9.0
       -1   -1    0    0    0  500  0.00000000000E+00  0.00000000000E+00 -1.11378016480E+02  1.11378016480E+02  0.00000000000E+00  0.0000E+00  9.0
       13    1    1    2    0    0  1.86008832980E+01 -4.16286772350E+02  4.17627818990E+02  5.89960741117E+02  1.05700000000E-01  0.0000E+00  9.0
      -13    1    1    2    0    0 -1.86008832980E+01  4.16286772350E+02  1.69662470180E+03  1.74704781263E+03  1.05700000000E-01  0.0000E+00  9.0
</event>
<event>
 4    1   7.6478753E-02   9.9320000E+02  -1.0000000E+00   9.4170000E-02
       -1   -1    0    0    0  500  0.00000000000E+00  0.00000000000E+00  1.31891183600E+02  1.31891183600E+02  0.00000000000E+00  0.0000E+00  9.0
        1   -1    0    0  500    0  0.00000000000E+00  0.00000000000E+00 -1.86971836250E+03  1.86971836250E+03  0.00000000000E+00  0.0000E+00  9.0
       13    1    1    2    0    0  3.15906605760E+01 -1.07986077050E+02 -1.84369221350E+03  1.84712207284E+03  1.05700000000E-01  0.0000E+00  9.0
      -13    1    1    2    0    0 -3.15906605760E+01  1.07986077050E+02  1.05865034600E+02  1.54487473264E+02  1.05700000000E-01  0.0000E+00  9.0
</event>
<event>
 4    1   7.6478753E-02   9.9810000E+02  -1.0000000E+00   9.4120000E-02
       -1   -1    0    0    0  500  0.00000000000E+00  0.00000000000E+00  1.06702553060E+03  1.06702553060E+03  0.00000000000E+00  0.0000E+00  9.0
        1   -1    0    0  500    0  0.00000000000E+00  0.00000000000E+00 -2.33398261620E+02  2.33398261620E+02  0.00000000000E+00  0.0000E+00  9.0
       13    1    1    2    0    0 -8.59799124560E+01  5.30805781160E+01 -2.19930235430E+02  2.42031842425E+02  1.05700000000E-01  0.0000E+00  9.0
      -13    1    1    2    0    0  8.59799124560E+01 -5.30805781160E+01  1.05355750440E+03  1.05839194978E+03  1.05700000000E-01  0.0000E+00  9.0
</event>
<event>
 4    1   7.6478753E-02   1.0020000E+03  -1.0000000E+00   9.4080000E-02
        1   -1    0    0  500    0  0.00000000000E+00  0.00000000000E+00  4.06193671630E+02  4.06193671630E+02  0.00000000000E+00  0.0000E+00  9.0
       -1   -1    0    0    0  500  0.00000000000E+00  0.00000000000E+00 -6.17667422550E+02  6.17667422550E+02  0.00000000000E+00  0.0000E+00  9.0
       13    1    1    2    0    0  4.74957408060E+01  4.52667565610E+01  4.01782693120E+02  4.07104738744E+02  1.05700000000E-01  0.0000E+00  9.0
      -13    1    1    2    0    0 -4.74957408060E+01 -4.52667565610E+01 -6.13256444030E+02  6.16756355428E+02  1.05700000000E-01  0.0000E+00  9.0
</event>
<event>
 4    1   7.6478753E-02   1.0050000E+03  -1.0000000E+00   9.4050000E-02
        1   -1    0    0  500    0  0.00000000000E+00  0.00000000000E+00  3.87867793800E+02  3.87867793800E+02  0.00000000000E+00  0.0000E+00  9.0
       -1   -1    0    0    0  500  0.00000000000E+00  0.00000000000E+00 -6.50541721960E+02  6.50541721960E+02  0.00000000000E+00  0.0000E+00  9.0
       13    1    1    2    0    0  1.66069115740E+02  3.19027880050E+02  2.31116714460E+02  4.27519223342E+02  1.05700000000E-01  0.0000E+00  9.0
      -13    1    1    2    0    0 -1.66069115740E+02 -3.19027880050E+02 -4.93790642630E+02  6.10890292420E+02  1.05700000000E-01  0.0000E+00  9.0
</event>
<event>
 4    1   7.6478753E-02   1.0030000E+03  -1.0000000E+00   9.4070000E-02
       -1   -1    0    0    0  500  0.00000000000E+00  0.00000000000E+00  5.28679436020E+02  5.28679436020E+02  0.00000000000E+00  0.0000E+00  9.0
        1   -1    0    0  500    0  0.00000000000E+00  0.00000000000E+00 -4.75273744270E+02  4.75273744270E+02  0.00000000000E+00  0.0000E+00  9.0
       13    1    1    2    0    0 -2.05029404980E+02 -4.22696622020E+02  2.01759035450E+02  5.11288774306E+02  1.05700000000E-01  0.0000E+00  9.0
      -13    1    1    2    0    0  2.05029404980E+02  4.22696622020E+02 -1.48353343700E+02  4.92664405994E+02  1.05700000000E-01  0.0000E+00  9.0
</event>
<event>
 4    1   7.6478753E-02   1.0060000E+03  -1.0000000E+00   9.4030000E-02
        1   -1    0    0  500    0  0.00000000000E+00  0.00000000000E+00  2.13347256410E+03  2.13347256410E+03  0.00000000000E+00  0.0000E+00  9.0
       -1   -1    0    0    0  500  0.00000000000E+00  0.00000000000E+00 -1.18657209930E+02  1.18657209930E+02  0.00000000000E+00  0.0000E+00  9.0
       13    1    1    2    0    0 -3.93063945410E+02 -1.35739127010E+02  1.64132772880E+03  1.69318667024E+03  1.05700000000E-01  0.0000E+00  9.0
      -13    1    1    2    0    0  3.93063945410E+02  1.35739127010E+02  3.73487625350E+02  5.58943103764E+02  1.05700000000E-01  0.0000E+00  9.0
</event>
<event>
 4    1   7.6478753E-02   1.0050000E+03  -1.0000000E+00   9.4050000E-02
        1   -1    0    0  500    0  0.00000000000E+00  0.00000000000E+00  5.44820370430E+02  5.44820370430E+02  0.00000000000E+00  0.0000E+00  9.0
       -1   -1    0    0    0  500  0.00000000000E+00  0.00000000000E+00 -4.63017927790E+02  4.63017927790E+02  0.00000000000E+00  0.0000E+00  9.0
       13    1    1    2    0    0  1.91099751840E+02 -3.83493493470E+02  3.03828288870E+02  5.25259949908E+02  1.05700000000E-01  0.0000E+00  9.0
      -13    1    1    2    0    0 -1.91099751840E+02  3.83493493470E+02 -2.22025846240E+02  4.82578348311E+02  1.05700000000E-01  0.0000E+00  9.0
</event>
<event>
 4    1   7.6478753E-02   1.0020000E+03  -1.0000000E+00   9.4080000E-02
       -2   -1    0    0    0  500  0.00000000000E+00  0.00000000000E+00  6.47142066130E+01  6.47142066130E+01  0.00000000000E+00  0.0000E+00  9.0
        2   -1    0    0  500    0  0.00000000000E+00  0.00000000000E+00 -3.87575180470E+03  3.87575180470E+03  0.00000000000E+00  0.0000E+00  9.0
       13    1    1    2    0    0  1.45040011480E+02  1.06571371180E+01 -2.01854025840E+01  1.46825206118E+02  1.05700000000E-01  0.0000E+00  9.0
      -13    1    1    2    0    0 -1.45040011480E+02 -1.06571371180E+01 -3.79085219550E+03  3.79364080519E+03  1.05700000000E-01  0.0000E+00  9.0
</event>
<event>
 4    1   7.6478753E-02   1.0020000E+03  -1.0000000E+00   9.4070000E-02
        1   -1    0    0  500    0  0.00000000000E+00  0.00000000000E+00  4.03133502250E+02  4.03133502250E+02  0.00000000000E+00  0.0000E+00  9.0
       -1   -1    0    0    0  500  0.00000000000E+00  0.00000000000E+00 -6.22771864940E+02  6.22771864940E+02  0.00000000000E+00  0.0000E+00  9.0
       13    1    1    2    0    0  1.25583424130E+02  4.54962043070E+02  6.23955677670E+01  4.76082844787E+02  1.05700000000E-01  0.0000E+00  9.0
      -13    1    1    2    0    0 -1.25583424130E+02 -4.54962043070E+02 -2.82033930450E+02  5.49822522409E+02  1.05700000000E-01  0.0000E+00  9.0
</event>
<event>
 4    1   7.6478753E-02   9.9960000E+02  -1.0000000E+00   9.4100000E-02
       -1   -1    0    0    0  500  0.00000000000E+00  0.00000000000E+00  6.14760661050E+02  6.14760661050E+02  0.00000000000E+00  0.0000E+00  9.0
        1   -1    0    0  500    0  0.00000000000E+00  0.00000000000E+00 -4.06310554210E+02  4.06310554210E+02  0.00000000000E+00  0.0000E+00  9.0
       13    1    1    2    0    0  3.89994263430E+02  3.11776664650E+02  1.26687186250E+02  5.15121217250E+02  1.05700000000E-01  0.0000E+00  9.0
      -13    1    1    2    0    0 -3.89994263430E+02 -3.11776664650E+02  8.17629205980E+01  5.05949998009E+02  1.05700000000E-01  0.0000E+00  9.0
</event>
<event>
 4    1   7.6478753E-02   1.0000000E+03  -1.0000000E+00   9.4090000E-02
        2   -1    0    0  500    0  0.00000000000E+00  0.00000000000E+00  4.49127057480E+02  4.49127057480E+02  0.00000000000E+00  0.0000E+00  9.0
       -2   -1    0    0    0  500  0.00000000000E+00  0.00000000000E+00 -5.57167847420E+02  5.57167847420E+02  0.00000000000E+00  0.0000E+00  9.0
       13    1    1    2    0    0 -1.13055627330E+02 -2.78355065270E+02 -4.56315824860E+02  5.46339876288E+02  1.05700000000E-01  0.0000E+00  9.0
      -13    1    1    2    0    0  1.13055627330E+02  2.78355065270E+02  3.48275034920E+02  4.59955028621E+02  1.05700000000E-01  0.0000E+00  9.0
</event>
<event>
 4    1   7.6478753E-02   9.9740000E+02  -1.0000000E+00   9.4130000E-02
       -1   -1    0    0    0  500  0.00000000000E+00  0.00000000000E+00  4.08608274050E+02  4.08608274050E+02  0.00000000000E+00  0.0000E+00  9.0
        1   -1    0    0  500    0  0.00000000000E+00  0.00000000000E+00 -6.08650417590E+02  6.08650417590E+02  0.00000000000E+00  0.0000E+00  9.0
       13    1    1    2    0    0  1.30051231690E+02 -2.18745904430E+02 -5.37440252390E+02  5.94647063081E+02  1.05700000000E-01  0.0000E+00  9.0
      -13    1    1    2    0    0 -1.30051231690E+02  2.18745904430E+02  3.37398108850E+02  4.22611628563E+02  1.05700000000E-01  0.0000E+00  9.0
</event>
<event>
 4    1   7.6478753E-02   9.9530000E+02  -1.0000000E+00   9.4150000E-02
        2   -1    0    0  500    0  0.00000000000E+00  0.00000000000E+00  2.51201889570E+03  2.51201889570E+03  0.00000000000E+00  0.0000E+00  9.0
       -2   -1    0    0    0  500  0.00000000000E+00  0.00000000000E+00 -9.85783475380E+01  9.85783475380E+01  0.00000000000E+00  0.0000E+00  9.0
       13    1    1    2    0    0  3.50585088620E+02 -9.38589731490E+01  2.09975933480E+03  2.13089387029E+03  1.05700000000E-01  0.0000E+00  9.0
      -13    1    1    2    0    0 -3.50585088620E+02  9.38589731490E+01  3.13681213290E+02  4.79703372874E+02  1.05700000000E-01  0.0000E+00  9.0
</event>
<event>
 4    1   7.6478753E-02   9.5700000E+02  -1.0000000E+00   9.4580000E-02
       -1   -1    0    0    0  500  0.00000000000E+00  0.00000000000E+00  8.06986543660E+02  8.06986543660E+02  0.00000000000E+00  0.0000E+00  9.0
        1   -1    0    0  500    0  0.00000000000E+00  0.00000000000E+00 -2.83719495420E+02  2.83719495420E+02  0.00000000000E+00  0.0000E+00  9.0
       13    1    1    2    0    0  9.74201449580E+01 -4.14303274650E+02  5.10865861030E+02  6.64922421917E+02  1.05700000000E-01  0.0000E+00  9.0
      -13    1    1    2    0    0 -9.74201449580E+01  4.14303274650E+02  1.24011872020E+01  4.25783617165E+02  1.05700000000E-01  0.0000E+00  9.0
</event>
<event>
 4    1   7.6478753E-02   1.0070000E+03  -1.0000000E+00   9.4020000E-02
       -1   -1    0    0    0  500  0.00000000000E+00  0.00000000000E+00  2.07315946480E+03  2.07315946480E+03  0.00000000000E+00  0.0000E+00  9.0
        1   -1    0    0  500    0  0.00000000000E+00  0.00000000000E+00 -1.22383976340E+02  1.22383976340E+02  0.00000000000E+00  0.0000E+00  9.0
       13    1    1    2    0    0  4.72423871800E+02  7.82944258750E-01  1.35622853730E+03  1.43615486080E+03  1.05700000000E-01  0.0000E+00  9.0
      -13    1    1    2    0    0 -4.72423871800E+02 -7.82944258750E-01  5.94546951140E+02  7.59388580327E+02  1.05700000000E-01  0.0000E+00  9.0
</event>
<event>
 4    1   7.6478753E-02   9.9870000E+02  -1.0000000E+00   9.4110000E-02
        1   -1    0    0  500    0  0.00000000000E+00  0.00000000000E+00  2.94656319940E+02  2.94656319940E+02  0.00000000000E+00  0.0000E+00  9.0
       -1   -1    0    0    0  500  0.00000000000E+00  0.00000000000E+00 -8.46159110970E+02  8.46159110970E+02  0.00000000000E+00  0.0000E+00  9.0
       13    1    1    2    0    0 -3.41962917740E+01 -1.63529922340E+02  2.61781089850E+02  3.10549145945E+02  1.05700000000E-01  0.0000E+00  9.0
      -13    1    1    2    0    0  3.41962917740E+01  1.63529922340E+02 -8.13283880880E+02  8.30266284961E+02  1.05700000000E-01  0.0000E+00  9.0
</event>
<event>
 4    1   7.6478753E-02   1.0110000E+03  -1.0000000E+00   9.3980000E-02
       -1   -1    0    0    0  500  0.00000000000E+00  0.00000000000E+00  5.70535070610E+02  5.70535070610E+02  0.00000000000E+00  0.0000E+00  9.0
        1   -1    0    0  500    0  0.00000000000E+00  0.00000000000E+00 -4.47735452060E+02  4.47735452060E+02  0.00000000000E+00  0.0000E+00  9.0
       13    1    1    2    0    0  2.23373342010E+02 -4.48259207300E+02  1.29846393460E+02  5.17389663520E+02  1.05700000000E-01  0.0000E+00  9.0
      -13    1    1    2    0    0 -2.23373342010E+02  4.48259207300E+02 -7.04677491910E+00  5.00880859146E+02  1.05700000000E-01  0.0000E+00  9.0
</event>
<event>
 4    1   7.6478753E-02   1.0020000E+03  -1.0000000E+00   9.4080000E-02
        1   -1    0    0  500    0  0.00000000000E+00  0.00000000000E+00  1.65936599690E+03  1.65936599690E+03  0.00000000000E+00  0.0000E+00  9.0
       -1   -1    0    0    0  500  0.00000000000E+00  0.00000000000E+00 -1.51190176740E+02  1.51190176740E+02  0.00000000000E+00  0.0000E+00  9.0
       13    1    1    2    0    0 -2.09989434620E+01 -5.51288564750E+01 -1.44889326270E+02  1.56438724369E+02  1.05700000000E-01  0.0000E+00  9.0
      -13    1    1    2    0    0  2.09989434620E+01  5.51288564750E+01  1.65306514650E+03  1.65411744933E+03  1.05700000000E-01  0.0000E+00  9.0
</event>
<event>
 4    1   7.6478753E-02   1.0020000E+03  -1.0000000E+00   9.4080000E-02
        1   -1    0    0  500    0  0.00000000000E+00  0.00000000000E+00  5.98815262330E+02  5.98815262330E+02  0.00000000000E+00  0.0000E+00  9.0
       -1   -1    0    0    0  500  0.00000000000E+00  0.00000000000E+00 -4.19178871800E+02  4.19178871800E+02  0.00000000000E+00  0.0000E+00  9.0
       13    1    1    2    0    0 -2.01886925570E+02  2.42188772550E+02 -3.05743661830E+02  4.39195776604E+02  1.05700000000E-01  0.0000E+00  9.0
      -13    1    1    2    0    0  2.01886925570E+02 -2.42188772550E+02  4.85380052360E+02  5.78798357519E+02  1.05700000000E-01  0.0000E+00  9.0
</event>
<event>
 4    1   7.6478753E-02   9.9820000E+02  -1.0000000E+00   9.4120000E-02
       -1   -1    0    0    0  500  0.00000000000E+00  0.00000000000E+00  1.56391317310E+02  1.56391317310E+02  0.00000000000E+00  0.0000E+00  9.0
        1   -1    0    0  500    0  0.00000000000E+00  0.00000000000E+00 -1.59289695280E+03  1.59289695280E+03  0.00000000000E+00  0.0000E+00  9.0
       13    1    1    2    0    0 -3.47787850720E+00 -2.68870412790E+02 -1.45511608820E+03  1.47975208593E+03  1.05700000000E-01  0.0000E+00  9.0
      -13    1    1    2    0    0  3.47787850720E+00  2.68870412790E+02  1.86104526180E+01  2.69536184272E+02  1.05700000000E-01  0.0000E+00  9.0
</event>
<event>
 4    1   7.6478753E-02   9.9570000E+02  -1.0000000E+00   9.4140000E-02
       -1   -1    0    0    0  500  0.00000000000E+00  0.00000000000E+00  5.56680948930E+02  5.56680948930E+02  0.00000000000E+00  0.0000E+00  9.0
        1   -1    0    0  500    0  0.00000000000E+00  0.00000000000E+00 -4.45235305510E+02  4.45235305510E+02  0.00000000000E+00  0.0000E+00  9.0
       13    1    1    2    0    0 -8.99888800280E+01  3.05089784820E+02 -3.29651978940E+02  4.58091927152E+02  1.05700000000E-01  0.0000E+00  9.0
      -13    1    1    2    0    0  8.99888800280E+01 -3.05089784820E+02  4.41097622360E+02  5.43824327292E+02  1.05700000000E-01  0.0000E+00  9.0
</event>
<event>
 4    1   7.6478753E-02   9.9870000E+02  -1.0000000E+00   9.4110000E-02
        1   -1    0    0  500    0  0.00000000000E+00  0.00000000000E+00  2.05697276030E+03  2.05697276030E+03  0.00000000000E+00  0.0000E+00  9.0
       -1   -1    0    0    0  500  0.00000000000E+00  0.00000000000E+00 -1.21217607700E+02  1.21217607700E+02  0.00000000000E+00  0.0000E+00  9.0
       13    1    1    2    0    0  1.02030304030E+02  1.42438631350E+02 -5.19714027930E+01  1.82756626479E+02  1.05700000000E-01  0.0000E+00  9.0
      -13    1    1    2    0    0 -1.02030304030E+02 -1.42438631350E+02  1.98772655540E+03  1.99543374153E+03  1.05700000000E-01  0.0000E+00  9.0
</event>
<event>
 4    1   7.6478753E-02   1.0040000E+03  -1.0000000E+00   9.4050000E-02
       -1   -1    0    0    0  500  0.00000000000E+00  0.00000000000E+00  3.27393691130E+02  3.27393691130E+02  0.00000000000E+00  0.0000E+00  9.0
        1   -1    0    0  500    0  0.00000000000E+00  0.00000000000E+00 -7.70119796110E+02  7.70119796110E+02  0.00000000000E+00  0.0000E+00  9.0
       13    1    1    2    0    0 -1.72464429680E+02 -4.52773579220E+02 -7.72689685560E+01  4.90630612802E+02  1.05700000000E-01  0.0000E+00  9.0
      -13    1    1    2    0    0  1.72464429680E+02  4.52773579220E+02 -3.65457136420E+02  6.06882874431E+02  1.05700000000E-01  0.0000E+00  9.0
</event>
<event>
 4    1   7.6478753E-02   9.9870000E+02  -1.0000000E+00   9.4110000E-02
        2   -1    0    0  500    0  0.00000000000E+00  0.00000000000E+00  1.54986727090E+03  1.54986727090E+03  0.00000000000E+00  0.0000E+00  9.0
       -2   -1    0    0    0  500  0.00000000000E+00  0.00000000000E+00 -1.60897637420E+02  1.60897637420E+02  0.00000000000E+00  0.0000E+00  9.0
       13    1    1    2    0    0 -1.27440483190E+02 -4.63216501680E+02  9.27841277000E+02  1.04484451028E+03  1.05700000000E-01  0.0000E+00  9.0
      -13    1    1    2    0    0  1.27440483190E+02  4.63216501680E+02  4.61128356450E+02  6.65920398005E+02  1.05700000000E-01  0.0000E+00  9.0
</event>
<event>
 4    1   7.6478753E-02   1.0130000E+03  -1.0000000E+00   9.3960000E-02
        1   -1    0    0  500    0  0.00000000000E+00  0.00000000000E+00  1.64256921740E+03  1.64256921740E+03  0.00000000000E+00  0.0000E+00  9.0
       -1   -1    0    0    0  500  0.00000000000E+00  0.00000000000E+00 -1.56063664870E+02  1.56063664870E+02  0.00000000000E+00  0.0000E+00  9.0
       13    1    1    2    0    0 -2.82524078470E+02 -2.17615946770E+02  1.38163180900E+03  1.42691381030E+03  1.05700000000E-01  0.0000E+00  9.0
      -13    1    1    2    0    0  2.82524078470E+02  2.17615946770E+02  1.04873743520E+02  3.71719071957E+02  1.05700000000E-01  0.0000E+00  9.0
</event>
<event>
 4    1   7.6478753E-02   1.0050000E+03  -1.0000000E+00   9.4040000E-02
       -1   -1    0    0    0  500  0.00000000000E+00  0.00000000000E+00  7.43403000530E+02  7.43403000530E+02  0.00000000000E+00  0.0000E+00  9.0
        1   -1    0    0  500    0  0.00000000000E+00  0.00000000000E+00 -3.39674008320E+02  3.39674008320E+02  0.00000000000E+00  0.0000E+00  9.0
       13    1    1    2    0    0 -3.11390190460E+02  3.73551718610E+02  3.38222528610E+02  5.92367476507E+02  1.05700000000E-01  0.0000E+00  9.0
      -13    1    1    2    0    0  3.11390190460E+02 -3.73551718610E+02  6.55064635940E+01  4.90709532347E+02  1.05700000000E-01  0.0000E+00  9.0
</event>
<event>
 4    1   7.6478753E-02   1.0010000E+03  -1.0000000E+00   9.4090000E-02
       -1   -1    0    0    0  500  0.00000000000E+00  0.00000000000E+00  1.70833401910E+02  1.70833401910E+02  0.00000000000E+00  0.0000E+00  9.0
        1   -1    0    0  500    0  0.00000000000E+00  0.00000000000E+00 -1.46644201310E+03  1.46644201310E+03  0.00000000000E+00  0.0000E+00  9.0
       13    1    1    2    0    0  2.17080300760E+02  3.03053305860E+02 -1.01528727950E+02  3.86358974197E+02  1.05700000000E-01  0.0000E+00  9.0
      -13    1    1    2    0    0 -2.17080300760E+02 -3.03053305860E+02 -1.19407988320E+03  1.25091644078E+03  1.05700000000E-01  0.0000E+00  9.0
</event>
<event>
 4    1   7.6478753E-02   9.9680000E+02  -1.0000000E+00   9.4130000E-02
       -2   -1    0    0    0  500  0.00000000000E+00  0.00000000000E+00  2.41975465970E+02  2.41975465970E+02  0.00000000000E+00  0.0000E+00  9.0
        2   -1    0    0  500    0  0.00000000000E+00  0.00000000000E+00 -1.02657491240E+03  1.02657491240E+03  0.00000000000E+00  0.0000E+00  9.0
       13    1    1    2    0    0 -4.02424847440E+02 -7.93765776160E+01 -7.52608068510E+02  8.57126195417E+02  1.05700000000E-01  0.0000E+00  9.0
      -13    1    1    2    0    0  4.02424847440E+02  7.93765776160E+01 -3.19913779540E+01  4.11424182988E+02  1.05700000000E-01  0.0000E+00  9.0
</event>
<event>
 4    1   7.6478753E-02   9.9920000E+02  -1.0000000E+00   9.4110000E-02
        1   -1    0    0  500    0  0.00000000000E+00  0.00000000000E+00  1.80041888200E+03  1.80041888200E+03  0.00000000000E+00  0.0000E+00  9.0
       -1   -1    0    0    0  500  0.00000000000E+00  0.00000000000E+00 -1.38634051040E+02  1.38634051040E+02  0.00000000000E+00  0.0000E+00  9.0
       13    1    1    2    0    0  4.55017537200E+02 -2.06268699930E+02  8.37506526860E+02  9.75194816145E+02  1.05700000000E-01  0.0000E+00  9.0
      -13    1    1    2    0    0 -4.55017537200E+02  2.06268699930E+02  8.24278304080E+02  9.63858116882E+02  1.05700000000E-01  0.0000E+00  9.0
</event>
<event>
 4    1   7.6478753E-02   1.0030000E+03  -1.0000000E+00   9.4060000E-02
       -2   -1    0    0    0  500  0.00000000000E+00  0.00000000000E+00  1.03636603870E+02  1.03636603870E+02  0.00000000000E+00  0.0000E+00  9.0
        2   -1    0    0  500    0  0.00000000000E+00  0.00000000000E+00 -2.42870201020E+03  2.42870201020E+03  0.00000000000E+00  0.0000E+00  9.0
       13    1    1    2    0    0  4.10368959120E+02  1.00553783270E+02 -4.79769653260E+02  6.39290761157E+02  1.05700000000E-01  0.0000E+00  9.0
      -13    1    1    2    0    0 -4.10368959120E+02 -1.00553783270E+02 -1.84529575300E+03  1.89304785284E+03  1.05700000000E-01  0.0000E+00  9.0
</event>
<event>
 4    1   7.6478753E-02   9.9620000E+02  -1.0000000E+00   9.4140000E-02
        1   -1    0    0  500    0  0.00000000000E+00  0.00000000000E+00  9.80501098960E+02  9.80501098960E+02  0.00000000000E+00  0.0000E+00  9.0
       -1   -1    0    0    0  500  0.00000000000E+00  0.00000000000E+00 -2.53062543400E+02  2.53062543400E+02  0.00000000000E+00  0.0000E+00  9.0
       13    1    1    2    0    0  1.06180104440E+02 -6.24227389100E+00 -2.38837685510E+02  2.61451012150E+02  1.05700000000E-01  0.0000E+00  9.0
      -13    1    1    2    0    0 -1.06180104440E+02  6.24227389100E+00  9.66276241070E+02  9.72112630198E+02  1.05700000000E-01  0.0000E+00  9.0
</event>
<event>
 4    1   7.6478753E-02   1.0680000E+03  -1.0000000E+00   9.3390000E-02
       -1   -1    0    0    0  500  0.00000000000E+00  0.00000000000E+00  1.32973564160E+03  1.32973564160E+03  0.00000000000E+00  0.0000E+00  9.0
        1   -1    0    0  500    0  0.00000000000E+00  0.00000000000E+00 -2.14425414100E+02  2.14425414100E+02  0.00000000000E+00  0.0000E+00  9.0
       13    1    1    2    0    0 -3.43945128620E+02 -2.64925896610E+02  1.00715727670E+03  1.09674508131E+03  1.05700000000E-01  0.0000E+00  9.0
      -13    1    1    2    0    0  3.43945128620E+02  2.64925896610E+02  1.08152950810E+02  4.47415974388E+02  1.05700000000E-01  0.0000E+00  9.0
</event>
<event>
 4    1   7.6478753E-02   1.0110000E+03  -1.0000000E+00   9.3980000E-02
        2   -1    0    0  500    0  0.00000000000E+00  0.00000000000E+00  4.57819330580E+02  4.57819330580E+02  0.00000000000E+00  0.0000E+00  9.0
       -2   -1    0    0    0  500  0.00000000000E+00  0.00000000000E+00 -5.57806386530E+02  5.57806386530E+02  0.00000000000E+00  0.0000E+00  9.0
       13    1    1    2    0    0 -3.30698325070E+02  1.95854476330E+02  2.79715115430E+02  4.75353463304E+02  1.05700000000E-01  0.0000E+00  9.0
      -13    1    1    2    0    0  3.30698325070E+02 -1.95854476330E+02 -3.79702171380E+02  5.40272253800E+02  1.05700000000E-01  0.0000E+00  9.0
</event>
<event>
 4    1   7.6478753E-02   9.9990000E+02  -1.0000000E+00   9.4100000E-02
       -2   -1    0    0    0  500  0.00000000000E+00  0.00000000000E+00  5.61796645580E+02  5.61796645580E+02  0.00000000000E+00  0.0000E+00  9.0
        2   -1    0    0  500    0  0.00000000000E+00  0.00000000000E+00 -4.44895293820E+02  4.44895293820E+02  0.00000000000E+00  0.0000E+00  9.0
       13    1    1    2    0    0  8.65562963660E+01  7.64411442720E+01 -4.31283569650E+02  4.46475945154E+02  1.05700000000E-01  0.0000E+00  9.0
      -13    1    1    2    0    0 -8.65562963660E+01 -7.64411442720E+01  5.48184921410E+02  5.60215994249E+02  1.05700000000E-01  0.0000E+00  9.0
</event>
<event>
 4    1   7.6478753E-02   9.8510000E+02  -1.0000000E+00   9.4260000E-02
       -1   -1    0    0    0  500  0.00000000000E+00  0.00000000000E+00  2.19721847480E+02  2.19721847480E+02  0.00000000000E+00  0.0000E+00  9.0
        1   -1    0    0  500    0  0.00000000000E+00  0.00000000000E+00 -1.10420835280E+03  1.10420835280E+03  0.00000000000E+00  0.0000E+00  9.0
       13    1    1    2    0    0  2.30353309210E+02 -2.63446874000E+02  2.35981373810E+01  3.50747467196E+02  1.05700000000E-01  0.0000E+00  9.0
      -13    1    1    2    0    0 -2.30353309210E+02  2.63446874000E+02 -9.08084642740E+02  9.73182733117E+02  1.05700000000E-01  0.0000E+00  9.0
</event>
<event>
 4    1   7.6478753E-02   1.0010000E+03  -1.0000000E+00   9.4080000E-02
       -1   -1    0    0    0  500  0.00000000000E+00  0.00000000000E+00  1.95695626970E+03  1.95695626970E+03  0.00000000000E+00  0.0000E+00  9.0
        1   -1    0    0  500    0  0.00000000000E+00  0.00000000000E+00 -1.28124459690E+02  1.28124459690E+02  0.00000000000E+00  0.0000E+00  9.0
       13    1    1    2    0    0 -1.91124340010E+02 -1.56554591080E+02  1.82122422510E+03  1.83790520501E+03  1.05700000000E-01  0.0000E+00  9.0
      -13    1    1    2    0    0  1.91124340010E+02  1.56554591080E+02  7.60758490170E+00  2.47175524381E+02  1.05700000000E-01  0.0000E+00  9.0
</event>
<event>
 4    1   7.6478753E-02   9.9740000E+02  -1.0000000E+00   9.4130000E-02
        3   -1    0    0  500    0  0.00000000000E+00  0.00000000000E+00  5.42861459110E+02  5.42861495952E+02  2.00000000000E-01  0.0000E+00  9.0
       -3   -1    0    0    0  500  0.00000000000E+00  0.00000000000E+00 -4.58093888680E+02  4.58093932339E+02  2.00000000000E-01  0.0000E+00  9.0
       13    1    1    2    0    0 -3.25792040170E+02 -3.27808074610E+02 -1.45595961740E+02  4.84558337525E+02  1.05700000000E-01  0.0000E+00  9.0
      -13    1    1    2    0    0  3.25792040170E+02  3.27808074610E+02  2.30363532160E+02  5.16397090754E+02  1.05700000000E-01  0.0000E+00  9.0
</event>
<event>
 4    1   7.6478753E-02   1.0010000E+03  -1.0000000E+00   9.4090000E-02
        3   -1    0    0  500    0  0.00000000000E+00  0.00000000000E+00  2.54736246550E+02  2.54736325063E+02  2.00000000000E-01  0.0000E+00  9.0
       -3   -1    0    0    0  500  0.00000000000E+00  0.00000000000E+00 -9.82493676690E+02  9.82493697046E+02  2.00000000000E-01  0.0000E+00  9.0
       13    1    1    2    0    0 -7.76981353960E+01 -1.91301132550E+02  1.99589603920E+02  2.87174415163E+02  1.05700000000E-01  0.0000E+00  9.0
      -13    1    1    2    0    0  7.76981353960E+01  1.91301132550E+02 -9.27347034050E+02  9.50055606948E+02  1.05700000000E-01  0.0000E+00  9.0
</event>
<event>
 4    1   7.6478753E-02   1.0220000E+03  -1.0000000E+00   9.3870000E-02
       -1   -1    0    0    0  500  0.00000000000E+00  0.00000000000E+00  4.42749092690E+02  4.42749092690E+02  0.00000000000E+00  0.0000E+00  9.0
        1   -1    0    0  500    0  0.00000000000E+00  0.00000000000E+00 -5.89419715440E+02  5.89419715440E+02  0.00000000000E+00  0.0000E+00  9.0
       13    1    1    2    0    0 -4.62487713320E+02 -1.87599126120E+02  3.67622630250E+01  5.00439599001E+02  1.05700000000E-01  0.0000E+00  9.0
      -13    1    1    2    0    0  4.62487713320E+02  1.87599126120E+02 -1.83432885780E+02  5.31729209138E+02  1.05700000000E-01  0.0000E+00  9.0
</event>
<event>
 4    1   7.6478753E-02   9.9590000E+02  -1.0000000E+00   9.4140000E-02
        3   -1    0    0  500    0  0.00000000000E+00  0.00000000000E+00  1.47937257730E+03  1.47937259082E+03  2.00000000000E-01  0.0000E+00  9.0
       -3   -1    0    0    0  500  0.00000000000E+00  0.00000000000E+00 -1.67604160470E+02  1.67604279799E+02  2.00000000000E-01  0.0000E+00  9.0
       13    1    1    2    0    0  4.68652563040E+02 -1.25468109620E+02  4.70457644750E+02  6.75801655852E+02  1.05700000000E-01  0.0000E+00  9.0
      -13    1    1    2    0    0 -4.68652563040E+02  1.25468109620E+02  8.41310772070E+02  9.71175214752E+02  1.05700000000E-01  0.0000E+00  9.0
</event>
<event>
 4    1   7.6478753E-02   1.0010000E+03  -1.0000000E+00   9.4090000E-02
       -1   -1    0    0    0  500  0.00000000000E+00  0.00000000000E+00  8.52348905370E+01  8.52348905370E+01  0.00000000000E+00  0.0000E+00  9.0
        1   -1    0    0  500    0  0.00000000000E+00  0.00000000000E+00 -2.93876617370E+03  2.93876617370E+03  0.00000000000E+00  0.0000E+00  9.0
       13    1    1    2    0    0  3.34229109330E+02  3.40630300130E+01 -2.54748071180E+03  2.56953835848E+03  1.05700000000E-01  0.0000E+00  9.0
      -13    1    1    2    0    0 -3.34229109330E+02 -3.40630300130E+01 -3.06050571430E+02  4.54462705821E+02  1.05700000000E-01  0.0000E+00  9.0
</event>
<event>
 4    1   7.6478753E-02   9.9890000E+02  -1.0000000E+00   9.4110000E-02
        2   -1    0    0  500    0  0.00000000000E+00  0.00000000000E+00  2.58340589150E+03  2.58340589150E+03  0.00000000000E+00  0.0000E+00  9.0
       -2   -1    0    0    0  500  0.00000000000E+00  0.00000000000E+00 -9.65539805140E+01  9.65539805140E+01  0.00000000000E+00  0.0000E+00  9.0
       13    1    1    2    0    0  7.38224661970E+01 -4.82472448860E+02  9.59376265090E+02  1.07639781197E+03  1.05700000000E-01  0.0000E+00  9.0
      -13    1    1    2    0    0 -7.38224661970E+01  4.82472448860E+02  1.52747564590E+03  1.60356206004E+03  1.05700000000E-01  0.0000E+00  9.0
</event>
<event>
 4    1   7.6478753E-02   1.0030000E+03  -1.0000000E+00   9.4070000E-02
        1   -1    0    0  500    0  0.00000000000E+00  0.00000000000E+00  2.09190514760E+02  2.09190514760E+02  0.00000000000E+00  0.0000E+00  9.0
       -1   -1    0    0    0  500  0.00000000000E+00  0.00000000000E+00 -1.20191372890E+03  1.20191372890E+03  0.00000000000E+00  0.0000E+00  9.0
       13    1    1    2    0    0 -5.41729590470E+01 -2.39147619800E+02 -1.11179626480E+03  1.13851536623E+03  1.05700000000E-01  0.0000E+00  9.0
      -13    1    1    2    0    0  5.41729590470E+01  2.39147619800E+02  1.19073050630E+02  2.72588877445E+02  1.05700000000E-01  0.0000E+00  9.0
</event>
<event>
 4    1   7.6478753E-02   1.0030000E+03  -1.0000000E+00   9.4070000E-02
        1   -1    0    0  500    0  0.00000000000E+00  0.00000000000E+00  5.90602739460E+02  5.90602739460E+02  0.00000000000E+00  0.0000E+00  9.0
       -1   -1    0    0    0  500  0.00000000000E+00  0.00000000000E+00 -4.25649061330E+02  4.25649061330E+02  0.00000000000E+00  0.0000E+00  9.0
       13    1    1    2    0    0 -6.44865574340E+01 -3.00792561500E+02  4.83720515540E+02  5.73254070609E+02  1.05700000000E-01  0.0000E+00  9.0
      -13    1    1    2    0    0  6.44865574340E+01  3.00792561500E+02 -3.18766837410E+02  4.42997730184E+02  1.05700000000E-01  0.0000E+00  9.0
</event>
<event>
 4    1   7.6478753E-02   9.9600000E+02  -1.0000000E+00   9.4140000E-02
        2   -1    0    0  500    0  0.00000000000E+00  0.00000000000E+00  3.28610830400E+02  3.28610830400E+02  0.00000000000E+00  0.0000E+00  9.0
       -2   -1    0    0    0  500  0.00000000000E+00  0.00000000000E+00 -7.54712515970E+02  7.54712515970E+02  0.00000000000E+00  0.0000E+00  9.0
       13    1    1    2    0    0 -1.19318029240E+02 -2.63036131800E+02 -6.54303593580E+02  7.15218849359E+02  1.05700000000E-01  0.0000E+00  9.0
      -13    1    1    2    0    0  1.19318029240E+02  2.63036131800E+02  2.28201908000E+02  3.68104497013E+02  1.05700000000E-01  0.0000E+00  9.0
</event>
<event>
 4    1   7.6478753E-02   9.9770000E+02  -1.0000000E+00   9.4120000E-02
       -1   -1    0    0    0  500  0.00000000000E+00  0.00000000000E+00  2.89309659300E+02  2.89309659300E+02  0.00000000000E+00  0.0000E+00  9.0
        1   -1    0    0  500    0  0.00000000000E+00  0.00000000000E+00 -8.60151906800E+02  8.60151906800E+02  0.00000000000E+00  0.0000E+00  9.0
       13    1    1    2    0    0  3.73978451920E+02  1.81216369540E+02 -6.03352351640E+02  7.32620861354E+02  1.05700000000E-01  0.0000E+00  9.0
      -13    1    1    2    0    0 -3.73978451920E+02 -1.81216369540E+02  3.25101041350E+01  4.16840704746E+02  1.05700000000E-01  0.0000E+00  9.0
</event>
<event>
 4    1   7.6478753E-02   1.0100000E+03  -1.0000000E+00   9.3990000E-02
        1   -1    0    0  500    0  0.00000000000E+00  0.00000000000E+00  2.11000862000E+03  2.11000862000E+03  0.00000000000E+00  0.0000E+00  9.0
       -1   -1    0    0    0  500  0.00000000000E+00  0.00000000000E+00 -1.20945053560E+02  1.20945053560E+02  0.00000000000E+00  0.0000E+00  9.0
       13    1    1    2    0    0  2.11133707310E+02 -4.32879268910E+02  6.57959139910E+02  8.15396924680E+02  1.05700000000E-01  0.0000E+00  9.0
      -13    1    1    2    0    0 -2.11133707310E+02  4.32879268910E+02  1.33110442650E+03  1.41555674886E+03  1.05700000000E-01  0.0000E+00  9.0
</event>
<event>
 4    1   7.6478753E-02   9.9890000E+02  -1.0000000E+00   9.4110000E-02
        3   -1    0    0  500    0  0.00000000000E+00  0.00000000000E+00  7.52384333160E+02  7.52384359742E+02  2.00000000000E-01  0.0000E+00  9.0
       -3   -1    0    0    0  500  0.00000000000E+00  0.00000000000E+00 -3.31533904050E+02  3.31533964376E+02  2.00000000000E-01  0.0000E+00  9.0
       13    1    1    2    0    0 -1.26399820200E+02 -4.59433933840E+02  3.72776730110E+02  6.04995004768E+02  1.05700000000E-01  0.0000E+00  9.0
      -13    1    1    2    0    0  1.26399820200E+02  4.59433933840E+02  4.80736989920E+01  4.78923319350E+02  1.05700000000E-01  0.0000E+00  9.0
</event>
<event>
 4    1   7.6478753E-02   1.0010000E+03  -1.0000000E+00   9.4080000E-02
        1   -1    0    0  500    0  0.00000000000E+00  0.00000000000E+00  4.33784237390E+02  4.33784237390E+02  0.00000000000E+00  0.0000E+00  9.0
       -1   -1    0    0    0  500  0.00000000000E+00  0.00000000000E+00 -5.77811655690E+02  5.77811655690E+02  0.00000000000E+00  0.0000E+00  9.0
       13    1    1    2    0    0  2.30588539400E+02 -1.79805426420E+02 -4.82576041150E+02  5.64252348278E+02  1.05700000000E-01  0.0000E+00  9.0
      -13    1    1    2    0    0 -2.30588539400E+02  1.79805426420E+02  3.38548622850E+02  4.47343544805E+02  1.05700000000E-01  0.0000E+00  9.0
</event>
<event>
 4    1   7.6478753E-02   1.0040000E+03  -1.0000000E+00   9.4060000E-02
        1   -1    0    0  500    0  0.00000000000E+00  0.00000000000E+00  1.85661934370E+03  1.85661934370E+03  0.00000000000E+00  0.0000E+00  9.0
       -1   -1    0    0    0  500  0.00000000000E+00  0.00000000000E+00 -1.35674114950E+02  1.35674114950E+02  0.00000000000E+00  0.0000E+00  9.0
       13    1    1    2    0    0 -3.71464648980E+02  3.50125588630E+01  1.52673175110E+03  1.57166208700E+03  1.05700000000E-01  0.0000E+00  9.0
      -13    1    1    2    0    0  3.71464648980E+02 -3.50125588630E+01  1.94213477600E+02  4.20631371600E+02  1.05700000000E-01  0.0000E+00  9.0
</event>
<event>
 4    1   7.6478753E-02   9.9950000E+02  -1.0000000E+00   9.4100000E-02
       -1   -1    0    0    0  500  0.00000000000E+00  0.00000000000E+00  2.28216378180E+02  2.28216378180E+02  0.00000000000E+00  0.0000E+00  9.0
        1   -1    0    0  500    0  0.00000000000E+00  0.00000000000E+00 -1.09428981350E+03  1.09428981350E+03  0.00000000000E+00  0.0000E+00  9.0
       13    1    1    2    0    0 -2.61171874730E+02 -4.20807025890E+02 -3.44811920510E+02  6.03477069064E+02  1.05700000000E-01  0.0000E+00  9.0
      -13    1    1    2    0    0  2.61171874730E+02  4.20807025890E+02 -5.21261514830E+02  7.19029122639E+02  1.05700000000E-01  0.0000E+00  9.0
</event>
<event>
 4    1   7.6478753E-02   9.9320000E+02  -1.0000000E+00   9.4170000E-02
       -1   -1    0    0    0  500  0.00000000000E+00  0.00000000000E+00  6.30709684370E+02  6.30709684370E+02  0.00000000000E+00  0.0000E+00  9.0
        1   -1    0    0  500    0  0.00000000000E+00  0.00000000000E+00 -3.91002493310E+02  3.91002493310E+02  0.00000000000E+00  0.0000E+00  9.0
       13    1    1    2    0    0 -1.01442500790E+02 -3.70022382950E+02  4.44186798210E+02  5.86948948144E+02  1.05700000000E-01  0.0000E+00  9.0
      -13    1    1    2    0    0  1.01442500790E+02  3.70022382950E+02 -2.04479607150E+02  4.34763229544E+02  1.05700000000E-01  0.0000E+00  9.0
</event>
<event>
 4    1   7.6478753E-02   1.0030000E+03  -1.0000000E+00   9.4070000E-02
       -1   -1    0    0    0  500  0.00000000000E+00  0.00000000000E+00  1.40517076910E+03  1.40517076910E+03  0.00000000000E+00  0.0000E+00  9.0
        1   -1    0    0  500    0  0.00000000000E+00  0.00000000000E+00 -1.78977521650E+02  1.78977521650E+02  0.00000000000E+00  0.0000E+00  9.0
       13    1    1    2    0    0  4.83379549290E+02  1.28078787430E+02  5.53286108660E+02  7.45778448113E+02  1.05700000000E-01  0.0000E+00  9.0
      -13    1    1    2    0    0 -4.83379549290E+02 -1.28078787430E+02  6.72907138800E+02  8.38369842660E+02  1.05700000000E-01  0.0000E+00  9.0
</event>
<event>
 4    1   7.6478753E-02   9.9860000E+02  -1.0000000E+00   9.4110000E-02
       -1   -1    0    0    0  500  0.00000000000E+00  0.00000000000E+00  1.53485856950E+02  1.53485856950E+02  0.00000000000E+00  0.0000E+00  9.0
        1   -1    0    0  500    0  0.00000000000E+00  0.00000000000E+00 -1.62428373190E+03  1.62428373190E+03  0.00000000000E+00  0.0000E+00  9.0
       13    1    1    2    0    0  8.14746912210E+01  6.77239736680E+01  1.33244855320E+02  1.70231796562E+02  1.05700000000E-01  0.0000E+00  9.0
      -13    1    1    2    0    0 -8.14746912210E+01 -6.77239736680E+01 -1.60404273020E+03  1.60753779221E+03  1.05700000000E-01  0.0000E+00  9.0
</event>
<event>
 4    1   7.6478753E-02   1.0000000E+03  -1.0000000E+00   9.4090000E-02
       -1   -1    0    0    0  500  0.00000000000E+00  0.00000000000E+00  3.28038463550E+02  3.28038463550E+02  0.00000000000E+00  0.0000E+00  9.0
        1   -1    0    0  500    0  0.00000000000E+00  0.00000000000E+00 -7.62497568640E+02  7.62497568640E+02  0.00000000000E+00  0.0000E+00  9.0
       13    1    1    2    0    0 -1.44414809660E+02  2.04931652200E+02  2.54582851780E+02  3.57302475384E+02  1.05700000000E-01  0.0000E+00  9.0
      -13    1    1    2    0    0  1.44414809660E+02 -2.04931652200E+02 -6.89041956870E+02  7.33233556803E+02  1.05700000000E-01  0.0000E+00  9.0
</event>
<event>
 4    1   7.6478753E-02   1.0000000E+03  -1.0000000E+00   9.4090000E-02
        1   -1    0    0  500    0  0.00000000000E+00  0.00000000000E+00  7.94414317390E+02  7.94414317390E+02  0.00000000000E+00  0.0000E+00  9.0
       -1   -1    0    0    0  500  0.00000000000E+00  0.00000000000E+00 -3.14908531610E+02  3.14908531610E+02  0.00000000000E+00  0.0000E+00  9.0
       13    1    1    2    0    0  3.12845601840E+02  8.28932158930E+01 -1.83140138300E+02  3.71865536533E+02  1.05700000000E-01  0.0000E+00  9.0
      -13    1    1    2    0    0 -3.12845601840E+02 -8.28932158930E+01  6.62645924080E+02  7.37457312462E+02  1.05700000000E-01  0.0000E+00  9.0
</event>
<event>
 4    1   7.6478753E-02   1.0030000E+03  -1.0000000E+00   9.4060000E-02
       -1   -1    0    0    0  500  0.00000000000E+00  0.00000000000E+00  6.95116513080E+02  6.95116513080E+02  0.00000000000E+00  0.0000E+00  9.0
        1   -1    0    0  500    0  0.00000000000E+00  0.00000000000E+00 -3.62099683490E+02  3.62099683490E+02  0.00000000000E+00  0.0000E+00  9.0
       13    1    1    2    0    0  4.76218298060E+02  6.38548851180E+01  1.44041822700E+01  4.80696167449E+02  1.05700000000E-01  0.0000E+00  9.0
      -13    1    1    2    0    0 -4.76218298060E+02 -6.38548851180E+01  3.18612647330E+02  5.76520029116E+02  1.05700000000E-01  0.0000E+00  9.0
</event>
<event>
 4    1   7.6478753E-02   9.8660000E+02  -1.0000000E+00   9.4240000E-02
       -1   -1    0    0    0  500  0.00000000000E+00  0.00000000000E+00  1.75532528610E+03  1.75532528610E+03  0.00000000000E+00  0.0000E+00  9.0
        1   -1    0    0  500    0  0.00000000000E+00  0.00000000000E+00 -1.38636413570E+02  1.38636413570E+02  0.00000000000E+00  0.0000E+00  9.0
       13    1    1    2    0    0 -3.65999850580E+02  2.10648629330E+02  1.29785051500E+03  1.36482405684E+03  1.05700000000E-01  0.0000E+00  9.0
      -13    1    1    2    0    0  3.65999850580E+02 -2.10648629330E+02  3.18838357550E+02  5.29137642850E+02  1.05700000000E-01  0.0000E+00  9.0
</event>
<event>
 4    1   7.6478753E-02   1.0010000E+03  -1.0000000E+00   9.4090000E-02
       -1   -1    0    0    0  500  0.00000000000E+00  0.00000000000E+00  5.49526963010E+02  5.49526963010E+02  0.00000000000E+00  0.0000E+00  9.0
        1   -1    0    0  500    0  0.00000000000E+00  0.00000000000E+00 -4.55912474050E+02  4.55912474050E+02  0.00000000000E+00  0.0000E+00  9.0
       13    1    1    2    0    0  4.27020033180E+02 -8.35213009970E+01  2.95301878850E+02  5.25856565312E+02  1.05700000000E-01  0.0000E+00  9.0
      -13    1    1    2    0    0 -4.27020033180E+02  8.35213009970E+01 -2.01687389880E+02  4.79582871740E+02  1.05700000000E-01  0.0000E+00  9.0
</event>
<event>
 4    1   7.6478753E-02   1.0020000E+03  -1.0000000E+00   9.4070000E-02
        1   -1    0    0  500    0  0.00000000000E+00  0.00000000000E+00  5.77431821580E+02  5.77431821580E+02  0.00000000000E+00  0.0000E+00  9.0
       -1   -1    0    0    0  500  0.00000000000E+00  0.00000000000E+00 -4.34949771240E+02  4.34949771240E+02  0.00000000000E+00  0.0000E+00  9.0
       13    1    1    2    0    0 -3.39685605270E+02  3.05260384960E+02  2.79673600720E+02  5.35525486943E+02  1.05700000000E-01  0.0000E+00  9.0
      -13    1    1    2    0    0  3.39685605270E+02 -3.05260384960E+02 -1.37191550370E+02  4.76856105884E+02  1.05700000000E-01  0.0000E+00  9.0
</event>
<event>
 4    1   7.6478753E-02   1.0010000E+03  -1.0000000E+00   9.4090000E-02
       -1   -1    0    0    0  500  0.00000000000E+00  0.00000000000E+00  5.21292885180E+02  5.21292885180E+02  0.00000000000E+00  0.0000E+00  9.0
        1   -1    0    0  500    0  0.00000000000E+00  0.00000000000E+00 -4.80386001130E+02  4.80386001130E+02  0.00000000000E+00  0.0000E+00  9.0
       13    1    1    2    0    0  8.37933991770E+01 -2.39150577340E+02  4.52331353820E+02  5.18476612017E+02  1.05700000000E-01  0.0000E+00  9.0
      -13    1    1    2    0    0 -8.37933991770E+01  2.39150577340E+02 -4.11424469760E+02  4.83202274288E+02  1.05700000000E-01  0.0000E+00  9.0
</event>
<event>
 4    1   7.6478753E-02   1.0010000E+03  -1.0000000E+00   9.4080000E-02
        1   -1    0    0  500    0  0.00000000000E+00  0.00000000000E+00  1.55731629040E+02  1.55731629040E+02  0.00000000000E+00  0.0000E+00  9.0
       -1   -1    0    0    0  500  0.00000000000E+00  0.00000000000E+00 -1.60961908850E+03  1.60961908850E+03  0.00000000000E+00  0.0000E+00  9.0
       13    1    1    2    0    0  5.34472877710E+01 -2.73587286880E+02  6.26284573890E+00  2.78829429081E+02  1.05700000000E-01  0.0000E+00  9.0
      -13    1    1    2    0    0 -5.34472877710E+01  2.73587286880E+02 -1.46015030520E+03  1.48652128847E+03  1.05700000000E-01  0.0000E+00  9.0
</event>
<event>
 4    1   7.6478753E-02   1.0070000E+03  -1.0000000E+00   9.4020000E-02
       -1   -1    0    0    0  500  0.00000000000E+00  0.00000000000E+00  1.30665347800E+02  1.30665347800E+02  0.00000000000E+00  0.0000E+00  9.0
        1   -1    0    0  500    0  0.00000000000E+00  0.00000000000E+00 -1.94067522160E+03  1.94067522160E+03  0.00000000000E+00  0.0000E+00  9.0
       13    1    1    2    0    0  2.66190366620E+01  1.87323794770E+02  5.47803352720E+01  1.96976327270E+02  1.05700000000E-01  0.0000E+00  9.0
      -13    1    1    2    0    0 -2.66190366620E+01 -1.87323794770E+02 -1.86479020910E+03  1.87436424217E+03  1.05700000000E-01  0.0000E+00  9.0
</event>
<event>
 4    1   7.6478753E-02   1.0000000E+03  -1.0000000E+00   9.4090000E-02
       -1   -1    0    0    0  500  0.00000000000E+00  0.00000000000E+00  1.84920240050E+03  1.84920240050E+03  0.00000000000E+00  0.0000E+00  9.0
        1   -1    0    0  500    0  0.00000000000E+00  0.00000000000E+00 -1.35323257050E+02  1.35323257050E+02  0.00000000000E+00  0.0000E+00  9.0
       13    1    1    2    0    0  4.79431652740E+02  8.50963859530E+01  1.08435067070E+03  1.18865995675E+03  1.05700000000E-01  0.0000E+00  9.0
      -13    1    1    2    0    0 -4.79431652740E+02 -8.50963859530E+01  6.29528472770E+02  7.95865700826E+02  1.05700000000E-01  0.0000E+00  9.0
</event>
<event>
 4    1   7.6478753E-02   9.9680000E+02  -1.0000000E+00   9.4130000E-02
        1   -1    0    0  500    0  0.00000000000E+00  0.00000000000E+00  1.21958491750E+03  1.21958491750E+03  0.00000000000E+00  0.0000E+00  9.0
       -1   -1    0    0    0  500  0.00000000000E+00  0.00000000000E+00 -2.03675986260E+02  2.03675986260E+02  0.00000000000E+00  0.0000E+00  9.0
       13    1    1    2    0    0 -1.68298255760E+01  2.39877770510E+01 -2.02444942300E+02  2.04554692716E+02  1.05700000000E-01  0.0000E+00  9.0
      -13    1    1    2    0    0  1.68298255760E+01 -2.39877770510E+01  1.21835387360E+03  1.21870621110E+03  1.05700000000E-01  0.0000E+00  9.0
</event>
<event>
 4    1   7.6478753E-02   9.9930000E+02  -1.0000000E+00   9.4100000E-02
        1   -1    0    0  500    0  0.00000000000E+00  0.00000000000E+00  1.42770382460E+03  1.42770382460E+03  0.00000000000E+00  0.0000E+00  9.0
       -1   -1    0    0    0  500  0.00000000000E+00  0.00000000000E+00 -1.74872311440E+02  1.74872311440E+02  0.00000000000E+00  0.0000E+00  9.0
       13    1    1    2    0    0  2.73811558550E+02  2.99651920520E+02  1.09368540540E+03  1.16658125316E+03  1.05700000000E-01  0.0000E+00  9.0
      -13    1    1    2    0    0 -2.73811558550E+02 -2.99651920520E+02  1.59146107680E+02  4.35994882801E+02  1.05700000000E-01  0.0000E+00  9.0
</event>
<event>
 4    1   7.6478753E-02   9.9860000E+02  -1.0000000E+00   9.4110000E-02
       -1   -1    0    0    0  500  0.00000000000E+00  0.00000000000E+00  2.99769970750E+02  2.99769970750E+02  0.00000000000E+00  0.0000E+00  9.0
        1   -1    0    0  500    0  0.00000000000E+00  0.00000000000E+00 -8.31717409770E+02  8.31717409770E+02  0.00000000000E+00  0.0000E+00  9.0
       13    1    1    2    0    0  4.36489652600E+02  2.36848326250E+02 -3.24885837630E+02  5.93440110828E+02  1.05700000000E-01  0.0000E+00  9.0
      -13    1    1    2    0    0 -4.36489652600E+02 -2.36848326250E+02 -2.07061601390E+02  5.38047269686E+02  1.05700000000E-01  0.0000E+00  9.0
</event>
<event>
 4    1   7.6478753E-02   9.9790000E+02  -1.0000000E+00   9.4120000E-02
       -1   -1    0    0    0  500  0.00000000000E+00  0.00000000000E+00  7.27202170010E+02  7.27202170010E+02  0.00000000000E+00  0.0000E+00  9.0
        1   -1    0    0  500    0  0.00000000000E+00  0.00000000000E+00 -3.42358903150E+02  3.42358903150E+02  0.00000000000E+00  0.0000E+00  9.0
       13    1    1    2    0    0 -1.86268231250E+01 -4.71532816260E+02  1.86935403370E+01  4.72270700947E+02  1.05700000000E-01  0.0000E+00  9.0
      -13    1    1    2    0    0  1.86268231250E+01  4.71532816260E+02  3.66149726520E+02  5.97290372225E+02  1.05700000000E-01  0.0000E+00  9.0
</event>
<event>
 4    1   7.6478753E-02   1.0100000E+03  -1.0000000E+00   9.3990000E-02
       -1   -1    0    0    0  500  0.00000000000E+00  0.00000000000E+00  1.34091067210E+03  1.34091067210E+03  0.00000000000E+00  0.0000E+00  9.0
        1   -1    0    0  500    0  0.00000000000E+00  0.00000000000E+00 -1.90225744310E+02  1.90225744310E+02  0.00000000000E+00  0.0000E+00  9.0
       13    1    1    2    0    0  4.23873922250E+02 -2.73992731680E+02  5.47614842130E+02  7.44730250138E+02  1.05700000000E-01  0.0000E+00  9.0
      -13    1    1    2    0    0 -4.23873922250E+02  2.73992731680E+02  6.03070085670E+02  7.86406166290E+02  1.05700000000E-01  0.0000E+00  9.0
</event>
<event>
 4    1   7.6478753E-02   9.9630000E+02  -1.0000000E+00   9.4140000E-02
        1   -1    0    0  500    0  0.00000000000E+00  0.00000000000E+00  1.49528634910E+03  1.49528634910E+03  0.00000000000E+00  0.0000E+00  9.0
       -1   -1    0    0    0  500  0.00000000000E+00  0.00000000000E+00 -1.65956563870E+02  1.65956563870E+02  0.00000000000E+00  0.0000E+00  9.0
       13    1    1    2    0    0  7.15785134970E+01 -1.41931345260E+02  1.45186248800E+03  1.46053849165E+03  1.05700000000E-01  0.0000E+00  9.0
      -13    1    1    2    0    0 -7.15785134970E+01  1.41931345260E+02 -1.22532702700E+02  2.00704421389E+02  1.05700000000E-01  0.0000E+00  9.0
</event>
<event>
 4    1   7.6478753E-02   9.6770000E+02  -1.0000000E+00   9.4450000E-02
       -1   -1    0    0    0  500  0.00000000000E+00  0.00000000000E+00  3.28015532170E+02  3.28015532170E+02  0.00000000000E+00  0.0000E+00  9.0
        1   -1    0    0  500    0  0.00000000000E+00  0.00000000000E+00 -7.13696306100E+02  7.13696306100E+02  0.00000000000E+00  0.0000E+00  9.0
       13    1    1    2    0    0 -3.73371822970E+02  8.83322127420E+01  1.24488406650E+02  4.03368903807E+02  1.05700000000E-01  0.0000E+00  9.0
      -13    1    1    2    0    0  3.73371822970E+02 -8.83322127420E+01 -5.10169180580E+02  6.38342934465E+02  1.05700000000E-01  0.0000E+00  9.0
</event>
<event>
 4    1   7.6478753E-02   1.1360000E+03  -1.0000000E+00   9.2740000E-02
       -1   -1    0    0    0  500  0.00000000000E+00  0.00000000000E+00  4.31821733660E+02  4.31821733660E+02  0.00000000000E+00  0.0000E+00  9.0
        1   -1    0    0  500    0  0.00000000000E+00  0.00000000000E+00 -7.47412076450E+02  7.47412076450E+02  0.00000000000E+00  0.0000E+00  9.0
       13    1    1    2    0    0 -2.47344210250E+02 -3.96474186050E+02  1.77511158910E+02  4.99881147132E+02  1.05700000000E-01  0.0000E+00  9.0
      -13    1    1    2    0    0  2.47344210250E+02  3.96474186050E+02 -4.93101501700E+02  6.79352662981E+02  1.05700000000E-01  0.0000E+00  9.0
</event>
<event>
 4    1   7.6478753E-02   1.0050000E+03  -1.0000000E+00   9.4040000E-02
       -1   -1    0    0    0  500  0.00000000000E+00  0.00000000000E+00  5.31782017490E+02  5.31782017490E+02  0.00000000000E+00  0.0000E+00  9.0
        1   -1    0    0  500    0  0.00000000000E+00  0.00000000000E+00 -4.75081803030E+02  4.75081803030E+02  0.00000000000E+00  0.0000E+00  9.0
       13    1    1    2    0    0  1.75357029810E+02  3.67561200310E+02 -2.66717219040E+02  4.86815581080E+02  1.05700000000E-01  0.0000E+00  9.0
      -13    1    1    2    0    0 -1.75357029810E+02 -3.67561200310E+02  3.23417433500E+02  5.20048239437E+02  1.05700000000E-01  0.0000E+00  9.0
</event>
<event>
 4    1   7.6478753E-02   1.0070000E+03  -1.0000000E+00   9.4030000E-02
       -1   -1    0    0    0  500  0.00000000000E+00  0.00000000000E+00  1.59003748520E+03  1.59003748520E+03  0.00000000000E+00  0.0000E+00  9.0
        1   -1    0    0  500    0  0.00000000000E+00  0.00000000000E+00 -1.59293978610E+02  1.59293978610E+02  0.00000000000E+00  0.0000E+00  9.0
       13    1    1    2    0    0 -3.03002425680E+02  2.72358512450E+02  2.01883701540E+02  4.54694039319E+02  1.05700000000E-01  0.0000E+00  9.0
      -13    1    1    2    0    0  3.03002425680E+02 -2.72358512450E+02  1.22885980510E+03  1.29463742455E+03  1.05700000000E-01  0.0000E+00  9.0
</event>
<event>
 4    1   7.6478753E-02   9.9040000E+02  -1.0000000E+00   9.4200000E-02
        1   -1    0    0  500    0  0.00000000000E+00  0.00000000000E+00  1.19078138900E+03  1.19078138900E+03  0.00000000000E+00  0.0000E+00  9.0
       -1   -1    0    0    0  500  0.00000000000E+00  0.00000000000E+00 -2.05925343100E+02  2.05925343100E+02  0.00000000000E+00  0.0000E+00  9.0
       13    1    1    2    0    0  1.54752020170E+02 -2.00423854350E+02  1.09257347320E+03  1.12153230656E+03  1.05700000000E-01  0.0000E+00  9.0
      -13    1    1    2    0    0 -1.54752020170E+02  2.00423854350E+02 -1.07717427330E+02  2.75174425524E+02  1.05700000000E-01  0.0000E+00  9.0
</event>
<event>
 4    1   7.6478753E-02   9.7030000E+02  -1.0000000E+00   9.4420000E-02
       -1   -1    0    0    0  500  0.00000000000E+00  0.00000000000E+00  1.99109238500E+02  1.99109238500E+02  0.00000000000E+00  0.0000E+00  9.0
        1   -1    0    0  500    0  0.00000000000E+00  0.00000000000E+00 -1.18221156430E+03  1.18221156430E+03  0.00000000000E+00  0.0000E+00  9.0
       13    1    1    2    0    0 -1.91890327370E+02 -7.76301405150E+01  1.33093084010E+02  2.46093715154E+02  1.05700000000E-01  0.0000E+00  9.0
      -13    1    1    2    0    0  1.91890327370E+02  7.76301405150E+01 -1.11619540980E+03  1.13522708763E+03  1.05700000000E-01  0.0000E+00  9.0
</event>
<event>
 4    1   7.6478753E-02   9.9860000E+02  -1.0000000E+00   9.4110000E-02
       -1   -1    0    0    0  500  0.00000000000E+00  0.00000000000E+00  1.62033940870E+02  1.62033940870E+02  0.00000000000E+00  0.0000E+00  9.0
        1   -1    0    0  500    0  0.00000000000E+00  0.00000000000E+00 -1.53848282930E+03  1.53848282930E+03  0.00000000000E+00  0.0000E+00  9.0
       13    1    1    2    0    0 -6.33837112140E+01  4.44449794490E+02 -3.16164964280E+02  5.49102367943E+02  1.05700000000E-01  0.0000E+00  9.0
      -13    1    1    2    0    0  6.33837112140E+01 -4.44449794490E+02 -1.06028392420E+03  1.15141440227E+03  1.05700000000E-01  0.0000E+00  9.0
</event>
<event>
 4    1   7.6478753E-02   9.9750000E+02  -1.0000000E+00   9.4120000E-02
       -1   -1    0    0    0  500  0.00000000000E+00  0.00000000000E+00  9.05956165470E+02  9.05956165470E+02  0.00000000000E+00  0.0000E+00  9.0
        1   -1    0    0  500    0  0.00000000000E+00  0.00000000000E+00 -2.74586054880E+02  2.74586054880E+02  0.00000000000E+00  0.0000E+00  9.0
       13    1    1    2    0    0  8.69769316600E+01 -4.21876697530E+02  6.13248115630E+02  7.49411900797E+02  1.05700000000E-01  0.0000E+00  9.0
      -13    1    1    2    0    0 -8.69769316600E+01  4.21876697530E+02  1.81219949540E+01  4.31130319548E+02  1.05700000000E-01  0.0000E+00  9.0
</event>
<event>
 4    1   7.6478753E-02   1.0110000E+03  -1.0000000E+00   9.3980000E-02
        3   -1    0    0  500    0  0.00000000000E+00  0.00000000000E+00  1.92787914220E+02  1.92788017961E+02  2.00000000000E-01  0.0000E+00  9.0
       -3   -1    0    0    0  500  0.00000000000E+00  0.00000000000E+00 -1.32458173290E+03  1.32458174800E+03  2.00000000000E-01  0.0000E+00  9.0
       13    1    1    2    0    0 -2.07700383630E+02  1.23009543090E+02 -1.23242316990E+03  1.25584142229E+03  1.05700000000E-01  0.0000E+00  9.0
      -13    1    1    2    0    0  2.07700383630E+02 -1.23009543090E+02  1.00629351220E+02  2.61528343685E+02  1.05700000000E-01  0.0000E+00  9.0
</event>
<event>
 4    1   7.6478753E-02   9.9900000E+02  -1.0000000E+00   9.4110000E-02
        3   -1    0    0  500    0  0.00000000000E+00  0.00000000000E+00  1.56098416200E+03  1.56098417481E+03  2.00000000000E-01  0.0000E+00  9.0
       -3   -1    0    0    0  500  0.00000000000E+00  0.00000000000E+00 -1.59837537020E+02  1.59837662147E+02  2.00000000000E-01  0.0000E+00  9.0
       13    1    1    2    0    0  7.23760297070E+01 -4.73019151090E+02  4.53832689570E+02  6.59507034283E+02  1.05700000000E-01  0.0000E+00  9.0
      -13    1    1    2    0    0 -7.23760297070E+01  4.73019151090E+02  9.47313935380E+02  1.06131480264E+03  1.05700000000E-01  0.0000E+00  9.0
</event>
<event>
 4    1   7.6478753E-02   9.9520000E+02  -1.0000000E+00   9.4150000E-02
       -1   -1    0    0    0  500  0.00000000000E+00  0.00000000000E+00  3.01699168320E+02  3.01699168320E+02  0.00000000000E+00  0.0000E+00  9.0
        1   -1    0    0  500    0  0.00000000000E+00  0.00000000000E+00 -8.20701477530E+02  8.20701477530E+02  0.00000000000E+00  0.0000E+00  9.0
       13    1    1    2    0    0 -4.62257440520E+02  2.09549161970E+01 -5.31265683050E+01  4.65771932668E+02  1.05700000000E-01  0.0000E+00  9.0
      -13    1    1    2    0    0  4.62257440520E+02 -2.09549161970E+01 -4.65875740910E+02  6.56628713178E+02  1.05700000000E-01  0.0000E+00  9.0
</event>
<event>
 4    1   7.6478753E-02   1.0020000E+03  -1.0000000E+00   9.4070000E-02
        1   -1    0    0  500    0  0.00000000000E+00  0.00000000000E+00  3.89971238810E+02  3.89971238810E+02  0.00000000000E+00  0.0000E+00  9.0
       -1   -1    0    0    0  500  0.00000000000E+00  0.00000000000E+00 -6.43763539080E+02  6.43763539080E+02  0.00000000000E+00  0.0000E+00  9.0
       13    1    1    2    0    0  1.98426335090E+02  4.15916156760E+02 -3.29804063450E+02  5.66683325458E+02  1.05700000000E-01  0.0000E+00  9.0
      -13    1    1    2    0    0 -1.98426335090E+02 -4.15916156760E+02  7.60117631760E+01  4.67051452438E+02  1.05700000000E-01  0.0000E+00  9.0
</event>
<event>
 4    1   7.6478753E-02   9.9650000E+02  -1.0000000E+00   9.4140000E-02
        3   -1    0    0  500    0  0.00000000000E+00  0.00000000000E+00  2.10528410730E+02  2.10528505729E+02  2.00000000000E-01  0.0000E+00  9.0
       -3   -1    0    0    0  500  0.00000000000E+00  0.00000000000E+00 -1.17917698030E+03  1.17917699726E+03  2.00000000000E-01  0.0000E+00  9.0
       13    1    1    2    0    0 -1.66670317960E+02 -3.67424068290E+02 -8.92039531740E+02  9.79037271102E+02  1.05700000000E-01  0.0000E+00  9.0
      -13    1    1    2    0    0  1.66670317960E+02  3.67424068290E+02 -7.66090378660E+01  4.10668231913E+02  1.05700000000E-01  0.0000E+00  9.0
</event>
<event>
 4    1   7.6478753E-02   1.0010000E+03  -1.0000000E+00   9.4090000E-02
       -2   -1    0    0    0  500  0.00000000000E+00  0.00000000000E+00  2.34130305250E+02  2.34130305250E+02  0.00000000000E+00  0.0000E+00  9.0
        2   -1    0    0  500    0  0.00000000000E+00  0.00000000000E+00 -1.06958415440E+03  1.06958415440E+03  0.00000000000E+00  0.0000E+00  9.0
       13    1    1    2    0    0 -4.87561290300E+02 -4.73941310490E+01 -5.50949758670E+02  7.37229857784E+02  1.05700000000E-01  0.0000E+00  9.0
      -13    1    1    2    0    0  4.87561290300E+02  4.73941310490E+01 -2.84504090450E+02  5.66484601831E+02  1.05700000000E-01  0.0000E+00  9.0
</event>
<event>
 4    1   7.6478753E-02   1.0040000E+03  -1.0000000E+00   9.4060000E-02
        5   -1    0    0  500    0  0.00000000000E+00  0.00000000000E+00  1.18672868570E+03  1.18673647600E+03  4.30000000000E+00  0.0000E+00  9.0
       -5   -1    0    0    0  500  0.00000000000E+00  0.00000000000E+00 -2.12120697360E+02  2.12164276561E+02  4.30000000000E+00  0.0000E+00  9.0
       13    1    1    2    0    0  3.33188223920E+02  2.55771010530E+02  1.04699850550E+02  4.32891755828E+02  1.05700000000E-01  0.0000E+00  9.0
      -13    1    1    2    0    0 -3.33188223920E+02 -2.55771010530E+02  8.69908137800E+02  9.66008996733E+02  1.05700000000E-01  0.0000E+00  9.0
</event>
<event>
 4    1   7.6478753E-02   1.0020000E+03  -1.0000000E+00   9.4080000E-02
       -2   -1    0    0    0  500  0.00000000000E+00  0.00000000000E+00  8.90242661750E+01  8.90242661750E+01  0.00000000000E+00  0.0000E+00  9.0
        2   -1    0    0  500    0  0.00000000000E+00  0.00000000000E+00 -2.81681883530E+03  2.81681883530E+03  0.00000000000E+00  0.0000E+00  9.0
       13    1    1    2    0    0  5.00610077990E+02  1.97508334570E-01 -1.39998795220E+03  1.48680084970E+03  1.05700000000E-01  0.0000E+00  9.0
      -13    1    1    2    0    0 -5.00610077990E+02 -1.97508334570E-01 -1.32780661700E+03  1.41904225184E+03  1.05700000000E-01  0.0000E+00  9.0
</event>
<event>
 4    1   7.6478753E-02   1.0040000E+03  -1.0000000E+00   9.4060000E-02
       -1   -1    0    0    0  500  0.00000000000E+00  0.00000000000E+00  6.15183914230E+02  6.15183914230E+02  0.00000000000E+00  0.0000E+00  9.0
        1   -1    0    0  500    0  0.00000000000E+00  0.00000000000E+00 -4.09446733180E+02  4.09446733180E+02  0.00000000000E+00  0.0000E+00  9.0
       13    1    1    2    0    0  6.67603838600E+01 -3.93397601370E+02  4.13608709260E+02  5.74709315363E+02  1.05700000000E-01  0.0000E+00  9.0
      -13    1    1    2    0    0 -6.67603838600E+01  3.93397601370E+02 -2.07871528210E+02  4.49921332046E+02  1.05700000000E-01  0.0000E+00  9.0
</event>
<event>
 4    1   7.6478753E-02   1.0020000E+03  -1.0000000E+00   9.4070000E-02
        1   -1    0    0  500    0  0.00000000000E+00  0.00000000000E+00  1.51847945320E+03  1.51847945320E+03  0.00000000000E+00  0.0000E+00  9.0
       -1   -1    0    0    0  500  0.00000000000E+00  0.00000000000E+00 -1.65442194990E+02  1.65442194990E+02  0.00000000000E+00  0.0000E+00  9.0
       13    1    1    2    0    0 -2.64949299860E+02  2.38153859730E+02  8.42634336210E+01  3.66081589019E+02  1.05700000000E-01  0.0000E+00  9.0
      -13    1    1    2    0    0  2.64949299860E+02 -2.38153859730E+02  1.26877382460E+03  1.31784005917E+03  1.05700000000E-01  0.0000E+00  9.0
</event>
<event>
 4    1   7.6478753E-02   1.0010000E+03  -1.0000000E+00   9.4090000E-02
        3   -1    0    0  500    0  0.00000000000E+00  0.00000000000E+00  2.91097395060E+02  2.91097463766E+02  2.00000000000E-01  0.0000E+00  9.0
       -3   -1    0    0    0  500  0.00000000000E+00  0.00000000000E+00 -8.60180178010E+02  8.60180201261E+02  2.00000000000E-01  0.0000E+00  9.0
       13    1    1    2    0    0  2.18802855500E+02 -3.87834625860E+02 -2.19506164870E+01  4.45838790739E+02  1.05700000000E-01  0.0000E+00  9.0
      -13    1    1    2    0    0 -2.18802855500E+02  3.87834625860E+02 -5.47132166460E+02  7.05438874275E+02  1.05700000000E-01  0.0000E+00  9.0
</event>
<event>
 4    1   7.6478753E-02   9.9990000E+02  -1.0000000E+00   9.4100000E-02
        1   -1    0    0  500    0  0.00000000000E+00  0.00000000000E+00  3.23311388490E+02  3.23311388490E+02  0.00000000000E+00  0.0000E+00  9.0
       -1   -1    0    0    0  500  0.00000000000E+00  0.00000000000E+00 -7.73054273330E+02  7.73054273330E+02  0.00000000000E+00  0.0000E+00  9.0
       13    1    1    2    0    0  4.59264016400E+02  1.58136281350E+02 -3.54642589800E+02  6.01416576020E+02  1.05700000000E-01  0.0000E+00  9.0
      -13    1    1    2    0    0 -4.59264016400E+02 -1.58136281350E+02 -9.51002950430E+01  4.94949085795E+02  1.05700000000E-01  0.0000E+00  9.0
</event>
<event>
 4    1   7.6478753E-02   9.9390000E+02  -1.0000000E+00   9.4160000E-02
        1   -1    0    0  500    0  0.00000000000E+00  0.00000000000E+00  5.76219115450E+02  5.76219115450E+02  0.00000000000E+00  0.0000E+00  9.0
       -1   -1    0    0    0  500  0.00000000000E+00  0.00000000000E+00 -4.28628070140E+02  4.28628070140E+02  0.00000000000E+00  0.0000E+00  9.0
       13    1    1    2    0    0 -7.45150481730E+01  4.10336094100E+02  3.47046843750E+02  5.42558499569E+02  1.05700000000E-01  0.0000E+00  9.0
      -13    1    1    2    0    0  7.45150481730E+01 -4.10336094100E+02 -1.99455798430E+02  4.62288686023E+02  1.05700000000E-01  0.0000E+00  9.0
</event>
<event>
 4    1   7.6478753E-02   9.7550000E+02  -1.0000000E+00   9.4370000E-02
        1   -1    0    0  500    0  0.00000000000E+00  0.00000000000E+00  6.85248703780E+02  6.85248703780E+02  0.00000000000E+00  0.0000E+00  9.0
       -1   -1    0    0    0  500  0.00000000000E+00  0.00000000000E+00 -3.47182114550E+02  3.47182114550E+02  0.00000000000E+00  0.0000E+00  9.0
       13    1    1    2    0    0 -2.05613043850E+02  3.82685570120E+01 -2.97318353970E+02  3.63509863741E+02  1.05700000000E-01  0.0000E+00  9.0
      -13    1    1    2    0    0  2.05613043850E+02 -3.82685570120E+01  6.35384943210E+02  6.68920954588E+02  1.05700000000E-01  0.0000E+00  9.0
</event>
<event>
 4    1   7.6478753E-02   9.9080000E+02  -1.0000000E+00   9.4200000E-02
       -2   -1    0    0    0  500  0.00000000000E+00  0.00000000000E+00  2.08314680080E+02  2.08314680080E+02  0.00000000000E+00  0.0000E+00  9.0
        2   -1    0    0  500    0  0.00000000000E+00  0.00000000000E+00 -1.17816463250E+03  1.17816463250E+03  0.00000000000E+00  0.0000E+00  9.0
       13    1    1    2    0    0  4.58593671040E+02  1.72745252960E+02 -3.83245497870E+02  6.22114298460E+02  1.05700000000E-01  0.0000E+00  9.0
      -13    1    1    2    0    0 -4.58593671040E+02 -1.72745252960E+02 -5.86604454540E+02  7.64365014111E+02  1.05700000000E-01  0.0000E+00  9.0
</event>
<event>
 4    1   7.6478753E-02   1.0010000E+03  -1.0000000E+00   9.4090000E-02
        2   -1    0    0  500    0  0.00000000000E+00  0.00000000000E+00  6.32978984710E+02  6.32978984710E+02  0.00000000000E+00  0.0000E+00  9.0
       -2   -1    0    0    0  500  0.00000000000E+00  0.00000000000E+00 -3.95527967710E+02  3.95527967710E+02  0.00000000000E+00  0.0000E+00  9.0
       13    1    1    2    0    0  1.35389040800E+02 -2.39981136750E+02  5.47981839480E+02  6.13355725446E+02  1.05700000000E-01  0.0000E+00  9.0
      -13    1    1    2    0    0 -1.35389040800E+02  2.39981136750E+02 -3.10530822480E+02  4.15151226961E+02  1.05700000000E-01  0.0000E+00  9.0
</event>
<event>
 4    1   7.6478753E-02   1.0040000E+03  -1.0000000E+00   9.4060000E-02
        2   -1    0    0  500    0  0.00000000000E+00  0.00000000000E+00  2.48646862640E+03  2.48646862640E+03  0.00000000000E+00  0.0000E+00  9.0
       -2   -1    0    0    0  500  0.00000000000E+00  0.00000000000E+00 -1.01321003140E+02  1.01321003140E+02  0.00000000000E+00  0.0000E+00  9.0
       13    1    1    2    0    0 -4.27572511340E+02 -1.78161202250E+02  1.69091852110E+03  1.75321565206E+03  1.05700000000E-01  0.0000E+00  9.0
      -13    1    1    2    0    0  4.27572511340E+02  1.78161202250E+02  6.94229102140E+02  8.34573977471E+02  1.05700000000E-01  0.0000E+00  9.0
</event>
<event>
 4    1   7.6478753E-02   9.9560000E+02  -1.0000000E+00   9.4150000E-02
       -1   -1    0    0    0  500  0.00000000000E+00  0.00000000000E+00  2.42896717280E+02  2.42896717280E+02  0.00000000000E+00  0.0000E+00  9.0
        1   -1    0    0  500    0  0.00000000000E+00  0.00000000000E+00 -1.02023743000E+03  1.02023743000E+03  0.00000000000E+00  0.0000E+00  9.0
       13    1    1    2    0    0  2.95175379360E+02 -2.92217751110E+02 -4.05462019790E+01  4.17329275646E+02  1.05700000000E-01  0.0000E+00  9.0
      -13    1    1    2    0    0 -2.95175379360E+02  2.92217751110E+02 -7.36794510720E+02  8.45804871613E+02  1.05700000000E-01  0.0000E+00  9.0
</event>
<event>
 4    1   7.6478753E-02   1.0140000E+03  -1.0000000E+00   9.3950000E-02
       -1   -1    0    0    0  500  0.00000000000E+00  0.00000000000E+00  1.24535023170E+02  1.24535023170E+02  0.00000000000E+00  0.0000E+00  9.0
        1   -1    0    0  500    0  0.00000000000E+00  0.00000000000E+00 -2.06463902540E+03  2.06463902540E+03  0.00000000000E+00  0.0000E+00  9.0
       13    1    1    2    0    0 -2.49930240960E+02 -2.42279956960E+02 -1.74112028270E+02  3.89203947117E+02  1.05700000000E-01  0.0000E+00  9.0
      -13    1    1    2    0    0  2.49930240960E+02  2.42279956960E+02 -1.76599197400E+03  1.79997010150E+03  1.05700000000E-01  0.0000E+00  9.0
</event>
<event>
 4    1   7.6478753E-02   9.9720000E+02  -1.0000000E+00   9.4130000E-02
        1   -1    0    0  500    0  0.00000000000E+00  0.00000000000E+00  2.98102189660E+02  2.98102189660E+02  0.00000000000E+00  0.0000E+00  9.0
       -1   -1    0    0    0  500  0.00000000000E+00  0.00000000000E+00 -8.34013110570E+02  8.34013110570E+02  0.00000000000E+00  0.0000E+00  9.0
       13    1    1    2    0    0 -1.58639255290E+02  4.51485189510E+02 -4.26954692580E+02  6.41323327468E+02  1.05700000000E-01  0.0000E+00  9.0
      -13    1    1    2    0    0  1.58639255290E+02 -4.51485189510E+02 -1.08956228320E+02  4.90791972762E+02  1.05700000000E-01  0.0000E+00  9.0
</event>
<event>
 4    1   7.6478753E-02   1.0000000E+03  -1.0000000E+00   9.4090000E-02
       -2   -1    0    0    0  500  0.00000000000E+00  0.00000000000E+00  6.25038478160E+02  6.25038478160E+02  0.00000000000E+00  0.0000E+00  9.0
        2   -1    0    0  500    0  0.00000000000E+00  0.00000000000E+00 -4.00370539880E+02  4.00370539880E+02  0.00000000000E+00  0.0000E+00  9.0
       13    1    1    2    0    0 -9.54933752520E+01 -4.28978732710E+02 -1.32584027650E+02  4.59042779482E+02  1.05700000000E-01  0.0000E+00  9.0
      -13    1    1    2    0    0  9.54933752520E+01  4.28978732710E+02  3.57251965930E+02  5.66366238549E+02  1.05700000000E-01  0.0000E+00  9.0
</event>
<event>
 4    1   7.6478753E-02   9.9780000E+02  -1.0000000E+00   9.4120000E-02
        2   -1    0    0  500    0  0.00000000000E+00  0.00000000000E+00  8.72354855850E+02  8.72354855850E+02  0.00000000000E+00  0.0000E+00  9.0
       -2   -1    0    0    0  500  0.00000000000E+00  0.00000000000E+00 -2.85293078190E+02  2.85293078190E+02  0.00000000000E+00  0.0000E+00  9.0
       13    1    1    2    0    0  4.75273652760E+02 -1.13054911500E+02  4.10770467150E+02  6.38278031799E+02  1.05700000000E-01  0.0000E+00  9.0
      -13    1    1    2    0    0 -4.75273652760E+02  1.13054911500E+02  1.76291310520E+02  5.19369902246E+02  1.05700000000E-01  0.0000E+00  9.0
</event>
<event>
 4    1   7.6478753E-02   9.9870000E+02  -1.0000000E+00   9.4110000E-02
       -1   -1    0    0    0  500  0.00000000000E+00  0.00000000000E+00  2.52566749300E+02  2.52566749300E+02  0.00000000000E+00  0.0000E+00  9.0
        1   -1    0    0  500    0  0.00000000000E+00  0.00000000000E+00 -9.87232199500E+02  9.87232199500E+02  0.00000000000E+00  0.0000E+00  9.0
       13    1    1    2    0    0 -3.10019920920E+02  7.66957691930E+01 -8.43867719460E+02  9.02278965453E+02  1.05700000000E-01  0.0000E+00  9.0
      -13    1    1    2    0    0  3.10019920920E+02 -7.66957691930E+01  1.09202269260E+02  3.37519983354E+02  1.05700000000E-01  0.0000E+00  9.0
</event>
<event>
 4    1   7.6478753E-02   9.7790000E+02  -1.0000000E+00   9.4340000E-02
        1   -1    0    0  500    0  0.00000000000E+00  0.00000000000E+00  1.22400090840E+03  1.22400090840E+03  0.00000000000E+00  0.0000E+00  9.0
       -1   -1    0    0    0  500  0.00000000000E+00  0.00000000000E+00 -1.95310753720E+02  1.95310753720E+02  0.00000000000E+00  0.0000E+00  9.0
       13    1    1    2    0    0 -2.43813913880E+01 -2.14313597250E+02 -1.22523069060E+02  2.48065886080E+02  1.05700000000E-01  0.0000E+00  9.0
      -13    1    1    2    0    0  2.43813913880E+01  2.14313597250E+02  1.15121322380E+03  1.17124577610E+03  1.05700000000E-01  0.0000E+00  9.0
</event>
<event>
 4    1   7.6478753E-02   9.4990000E+02  -1.0000000E+00   9.4660000E-02
       -1   -1    0    0    0  500  0.00000000000E+00  0.00000000000E+00  2.46632391330E+02  2.46632391330E+02  0.00000000000E+00  0.0000E+00  9.0
        1   -1    0    0  500    0  0.00000000000E+00  0.00000000000E+00 -9.14547866610E+02  9.14547866610E+02  0.00000000000E+00  0.0000E+00  9.0
       13    1    1    2    0    0  7.78373871810E+01  1.17607523990E+02 -8.88358221400E+02  8.99483479139E+02  1.05700000000E-01  0.0000E+00  9.0
      -13    1    1    2    0    0 -7.78373871810E+01 -1.17607523990E+02  2.20442746130E+02  2.61696778803E+02  1.05700000000E-01  0.0000E+00  9.0
</event>
<event>
 4    1   7.6478753E-02   9.7260000E+02  -1.0000000E+00   9.4400000E-02
       -1   -1    0    0    0  500  0.00000000000E+00  0.00000000000E+00  3.66130400790E+02  3.66130400790E+02  0.00000000000E+00  0.0000E+00  9.0
        1   -1    0    0  500    0  0.00000000000E+00  0.00000000000E+00 -6.45863972170E+02  6.45863972170E+02  0.00000000000E+00  0.0000E+00  9.0
       13    1    1    2    0    0 -3.15829476620E+02 -3.09102547800E+02  7.12832425300E+01  4.47631494867E+02  1.05700000000E-01  0.0000E+00  9.0
      -13    1    1    2    0    0  3.15829476620E+02  3.09102547800E+02 -3.51016813920E+02  5.64362878107E+02  1.05700000000E-01  0.0000E+00  9.0
</event>
<event>
 4    1   7.6478753E-02   9.9770000E+02  -1.0000000E+00   9.4120000E-02
        1   -1    0    0  500    0  0.00000000000E+00  0.00000000000E+00  3.41181301400E+02  3.41181301400E+02  0.00000000000E+00  0.0000E+00  9.0
       -1   -1    0    0    0  500  0.00000000000E+00  0.00000000000E+00 -7.29364292570E+02  7.29364292570E+02  0.00000000000E+00  0.0000E+00  9.0
       13    1    1    2    0    0 -2.66783392740E+02 -3.37872886620E+02 -4.64515339180E+02  6.33329280596E+02  1.05700000000E-01  0.0000E+00  9.0
      -13    1    1    2    0    0  2.66783392740E+02  3.37872886620E+02  7.63323480130E+01  4.37216313374E+02  1.05700000000E-01  0.0000E+00  9.0
</event>
<event>
 4    1   7.6478753E-02   1.0010000E+03  -1.0000000E+00   9.4090000E-02
        1   -1    0    0  500    0  0.00000000000E+00  0.00000000000E+00  5.54538653860E+02  5.54538653860E+02  0.00000000000E+00  0.0000E+00  9.0
       -1   -1    0    0    0  500  0.00000000000E+00  0.00000000000E+00 -4.51583282020E+02  4.51583282020E+02  0.00000000000E+00  0.0000E+00  9.0
       13    1    1    2    0    0  4.18115753020E+02 -2.70820705800E+01 -2.23583011720E+02  4.74914303609E+02  1.05700000000E-01  0.0000E+00  9.0
      -13    1    1    2    0    0 -4.18115753020E+02  2.70820705800E+01  3.26538383560E+02  5.31207632269E+02  1.05700000000E-01  0.0000E+00  9.0
</event>
<event>
 4    1   7.6478753E-02   9.9960000E+02  -1.0000000E+00   9.4100000E-02
       -1   -1    0    0    0  500  0.00000000000E+00  0.00000000000E+00  1.56830840570E+02  1.56830840570E+02  0.00000000000E+00  0.0000E+00  9.0
        1   -1    0    0  500    0  0.00000000000E+00  0.00000000000E+00 -1.59267637800E+03  1.59267637800E+03  0.00000000000E+00  0.0000E+00  9.0
       13    1    1    2    0    0 -4.87890823000E+01 -3.65416563850E+02 -1.27296113660E+02  3.90017886017E+02  1.05700000000E-01  0.0000E+00  9.0
      -13    1    1    2    0    0  4.87890823000E+01  3.65416563850E+02 -1.30854942380E+03  1.35948933258E+03  1.05700000000E-01  0.0000E+00  9.0
</event>
<event>
 4    1   7.6478753E-02   9.9400000E+02  -1.0000000E+00   9.4160000E-02
       -1   -1    0    0    0  500  0.00000000000E+00  0.00000000000E+00  6.05353635840E+02  6.05353635840E+02  0.00000000000E+00  0.0000E+00  9.0
        1   -1    0    0  500    0  0.00000000000E+00  0.00000000000E+00 -4.08033533470E+02  4.08033533470E+02  0.00000000000E+00  0.0000E+00  9.0
       13    1    1    2    0    0 -3.24563048710E+02 -3.76381502370E+02  9.80450043100E+01  5.06573826759E+02  1.05700000000E-01  0.0000E+00  9.0
      -13    1    1    2    0    0  3.24563048710E+02  3.76381502370E+02  9.92750980590E+01  5.06813342545E+02  1.05700000000E-01  0.0000E+00  9.0
</event>
<event>
 4    1   7.6478753E-02   1.0040000E+03  -1.0000000E+00   9.4060000E-02
        3   -1    0    0  500    0  0.00000000000E+00  0.00000000000E+00  1.19756299340E+03  1.19756301010E+03  2.00000000000E-01  0.0000E+00  9.0
       -3   -1    0    0    0  500  0.00000000000E+00  0.00000000000E+00 -2.10394562620E+02  2.10394657679E+02  2.00000000000E-01  0.0000E+00  9.0
       13    1    1    2    0    0 -4.33983289130E+02 -1.80832449460E+02  2.46977220830E+02  5.31074033260E+02  1.05700000000E-01  0.0000E+00  9.0
      -13    1    1    2    0    0  4.33983289130E+02  1.80832449460E+02  7.40191209970E+02  8.76883634533E+02  1.05700000000E-01  0.0000E+00  9.0
</event>
<event>
 4    1   7.6478753E-02   1.0200000E+03  -1.0000000E+00   9.3890000E-02
       -2   -1    0    0    0  500  0.00000000000E+00  0.00000000000E+00  1.88549851550E+02  1.88549851550E+02  0.00000000000E+00  0.0000E+00  9.0
        2   -1    0    0  500    0  0.00000000000E+00  0.00000000000E+00 -1.37915195790E+03  1.37915195790E+03  0.00000000000E+00  0.0000E+00  9.0
       13    1    1    2    0    0  1.90367679320E+02 -2.99649307970E+02 -1.15800740260E+03  1.21120217831E+03  1.05700000000E-01  0.0000E+00  9.0
      -13    1    1    2    0    0 -1.90367679320E+02  2.99649307970E+02 -3.25947037330E+01  3.56499631109E+02  1.05700000000E-01  0.0000E+00  9.0
</event>
<event>
 4    1   7.6478753E-02   9.9750000E+02  -1.0000000E+00   9.4120000E-02
        1   -1    0    0  500    0  0.00000000000E+00  0.00000000000E+00  1.67907428830E+03  1.67907428830E+03  0.00000000000E+00  0.0000E+00  9.0
       -1   -1    0    0    0  500  0.00000000000E+00  0.00000000000E+00 -1.48148003870E+02  1.48148003870E+02  0.00000000000E+00  0.0000E+00  9.0
       13    1    1    2    0    0  1.13201959520E+02  8.27247096490E+01  1.64223146490E+03  1.64820576892E+03  1.05700000000E-01  0.0000E+00  9.0
      -13    1    1    2    0    0 -1.13201959520E+02 -8.27247096490E+01 -1.11305180470E+02  1.79016523253E+02  1.05700000000E-01  0.0000E+00  9.0
</event>
<event>
 4    1   7.6478753E-02   1.0010000E+03  -1.0000000E+00   9.4090000E-02
       -1   -1    0    0    0  500  0.00000000000E+00  0.00000000000E+00  8.40639769370E+01  8.40639769370E+01  0.00000000000E+00  0.0000E+00  9.0
        1   -1    0    0  500    0  0.00000000000E+00  0.00000000000E+00 -2.97740657310E+03  2.97740657310E+03  0.00000000000E+00  0.0000E+00  9.0
       13    1    1    2    0    0 -2.27242040670E+02 -3.93190245410E+02 -8.04465519860E+02  9.23797758143E+02  1.05700000000E-01  0.0000E+00  9.0
      -13    1    1    2    0    0  2.27242040670E+02  3.93190245410E+02 -2.08887707630E+03  2.13767279189E+03  1.05700000000E-01  0.0000E+00  9.0
</event>
<event>
 4    1   7.6478753E-02   1.0020000E+03  -1.0000000E+00   9.4070000E-02
       -1   -1    0    0    0  500  0.00000000000E+00  0.00000000000E+00  1.74048237980E+02  1.74048237980E+02  0.00000000000E+00  0.0000E+00  9.0
        1   -1    0    0  500    0  0.00000000000E+00  0.00000000000E+00 -1.44348059150E+03  1.44348059150E+03  0.00000000000E+00  0.0000E+00  9.0
       13    1    1    2    0    0 -1.17305605280E+02  3.97852023080E+02 -1.80656911350E+02  4.52419902403E+02  1.05700000000E-01  0.0000E+00  9.0
      -13    1    1    2    0    0  1.17305605280E+02 -3.97852023080E+02 -1.08877544220E+03  1.16510892710E+03  1.05700000000E-01  0.0000E+00  9.0
</event>
<event>
 4    1   7.6478753E-02   9.9890000E+02  -1.0000000E+00   9.4110000E-02
       -1   -1    0    0    0  500  0.00000000000E+00  0.00000000000E+00  4.72065323270E+02  4.72065323270E+02  0.00000000000E+00  0.0000E+00  9.0
        1   -1    0    0  500    0  0.00000000000E+00  0.00000000000E+00 -5.28393078780E+02  5.28393078780E+02  0.00000000000E+00  0.0000E+00  9.0
       13    1    1    2    0    0  2.51168134290E+02 -5.25237765870E+01 -4.57320818470E+02  5.24391572175E+02  1.05700000000E-01  0.0000E+00  9.0
      -13    1    1    2    0    0 -2.51168134290E+02  5.25237765870E+01  4.00993062960E+02  4.76066829872E+02  1.05700000000E-01  0.0000E+00  9.0
</event>
<event>
 4    1   7.6478753E-02   9.9970000E+02  -1.0000000E+00   9.4100000E-02
        1   -1    0    0  500    0  0.00000000000E+00  0.00000000000E+00  1.92844031820E+02  1.92844031820E+02  0.00000000000E+00  0.0000E+00  9.0
       -1   -1    0    0    0  500  0.00000000000E+00  0.00000000000E+00 -1.29557980550E+03  1.29557980550E+03  0.00000000000E+00  0.0000E+00  9.0
       13    1    1    2    0    0 -1.13750469900E+01  5.75422108740E+01  1.87702152970E+02  1.96653520508E+02  1.05700000000E-01  0.0000E+00  9.0
      -13    1    1    2    0    0  1.13750469900E+01 -5.75422108740E+01 -1.29043792670E+03  1.29177031688E+03  1.05700000000E-01  0.0000E+00  9.0
</event>
<event>
 4    1   7.6478753E-02   1.0070000E+03  -1.0000000E+00   9.4020000E-02
       -1   -1    0    0    0  500  0.00000000000E+00  0.00000000000E+00  2.13266752260E+02  2.13266752260E+02  0.00000000000E+00  0.0000E+00  9.0
        1   -1    0    0  500    0  0.00000000000E+00  0.00000000000E+00 -1.18953813410E+03  1.18953813410E+03  0.00000000000E+00  0.0000E+00  9.0
       13    1    1    2    0    0 -2.43705666220E+02 -1.41613611370E+02 -1.06942589790E+03  1.10594693767E+03  1.05700000000E-01  0.0000E+00  9.0
      -13    1    1    2    0    0  2.43705666220E+02  1.41613611370E+02  9.31545160400E+01  2.96857948696E+02  1.05700000000E-01  0.0000E+00  9.0
</event>
<event>
 4    1   7.6478753E-02   1.0320000E+03  -1.0000000E+00   9.3760000E-02
        1   -1    0    0  500    0  0.00000000000E+00  0.00000000000E+00  7.22813448560E+02  7.22813448560E+02  0.00000000000E+00  0.0000E+00  9.0
       -1   -1    0    0    0  500  0.00000000000E+00  0.00000000000E+00 -3.68016939900E+02  3.68016939900E+02  0.00000000000E+00  0.0000E+00  9.0
       13    1    1    2    0    0  4.69964201720E+02  1.19923460410E+02 -8.07040045570E+00  4.85090846946E+02  1.05700000000E-01  0.0000E+00  9.0
      -13    1    1    2    0    0 -4.69964201720E+02 -1.19923460410E+02  3.62866909120E+02  6.05739541521E+02  1.05700000000E-01  0.0000E+00  9.0
</event>
<event>
 4    1   7.6478753E-02   1.0010000E+03  -1.0000000E+00   9.4090000E-02
       -1   -1    0    0    0  500  0.00000000000E+00  0.00000000000E+00  5.41193665780E+02  5.41193665780E+02  0.00000000000E+00  0.0000E+00  9.0
        1   -1    0    0  500    0  0.00000000000E+00  0.00000000000E+00 -4.62883624890E+02  4.62883624890E+02  0.00000000000E+00  0.0000E+00  9.0
       13    1    1    2    0    0  7.93683963640E+01  2.92132661740E+02  4.38956365120E+02  5.33219969664E+02  1.05700000000E-01  0.0000E+00  9.0
      -13    1    1    2    0    0 -7.93683963640E+01 -2.92132661740E+02 -3.60646324220E+02  4.70857321003E+02  1.05700000000E-01  0.0000E+00  9.0
</event>
<event>
 4    1   7.6478753E-02   9.9970000E+02  -1.0000000E+00   9.4100000E-02
       -1   -1    0    0    0  500  0.00000000000E+00  0.00000000000E+00  2.51985092170E+02  2.51985092170E+02  0.00000000000E+00  0.0000E+00  9.0
        1   -1    0    0  500    0  0.00000000000E+00  0.00000000000E+00 -9.91526539020E+02  9.91526539020E+02  0.00000000000E+00  0.0000E+00  9.0
       13    1    1    2    0    0  3.09575062650E+02 -1.99723023430E+02  5.04413663910E+01  3.71847210718E+02  1.05700000000E-01  0.0000E+00  9.0
      -13    1    1    2    0    0 -3.09575062650E+02  1.99723023430E+02 -7.89982813250E+02  8.71664420466E+02  1.05700000000E-01  0.0000E+00  9.0
</event>
<event>
 4    1   7.6478753E-02   9.9680000E+02  -1.0000000E+00   9.4130000E-02
        1   -1    0    0  500    0  0.00000000000E+00  0.00000000000E+00  3.08308201970E+02  3.08308201970E+02  0.00000000000E+00  0.0000E+00  9.0
       -1   -1    0    0    0  500  0.00000000000E+00  0.00000000000E+00 -8.05657115130E+02  8.05657115130E+02  0.00000000000E+00  0.0000E+00  9.0
       13    1    1    2    0    0 -9.29448043400E+01 -4.58394635790E+02 -4.41033570440E+02  6.42864682653E+02  1.05700000000E-01  0.0000E+00  9.0
      -13    1    1    2    0    0  9.29448043400E+01  4.58394635790E+02 -5.63153427140E+01  4.71100634443E+02  1.05700000000E-01  0.0000E+00  9.0
</event>
<event>
 4    1   7.6478753E-02   1.0070000E+03  -1.0000000E+00   9.4030000E-02
       -2   -1    0    0    0  500  0.00000000000E+00  0.00000000000E+00  3.97623163070E+02  3.97623163070E+02  0.00000000000E+00  0.0000E+00  9.0
        2   -1    0    0  500    0  0.00000000000E+00  0.00000000000E+00 -6.37216749550E+02  6.37216749550E+02  0.00000000000E+00  0.0000E+00  9.0
       13    1    1    2    0    0  1.62623234610E+02 -3.26347636570E+02 -4.76509454400E+02  6.00008639634E+02  1.05700000000E-01  0.0000E+00  9.0
      -13    1    1    2    0    0 -1.62623234610E+02  3.26347636570E+02  2.36915867920E+02  4.34831272995E+02  1.05700000000E-01  0.0000E+00  9.0
</event>
<event>
 4    1   7.6478753E-02   1.0050000E+03  -1.0000000E+00   9.4050000E-02
        2   -1    0    0  500    0  0.00000000000E+00  0.00000000000E+00  1.87725532790E+03  1.87725532790E+03  0.00000000000E+00  0.0000E+00  9.0
       -2   -1    0    0    0  500  0.00000000000E+00  0.00000000000E+00 -1.34427348290E+02  1.34427348290E+02  0.00000000000E+00  0.0000E+00  9.0
       13    1    1    2    0    0  1.98566643630E+02  2.33073839720E+02  7.40093531870E+01  3.15007178102E+02  1.05700000000E-01  0.0000E+00  9.0
      -13    1    1    2    0    0 -1.98566643630E+02 -2.33073839720E+02  1.66881862640E+03  1.69667549806E+03  1.05700000000E-01  0.0000E+00  9.0
</event>
<event>
 4    1   7.6478753E-02   9.9280000E+02  -1.0000000E+00   9.4180000E-02
        1   -1    0    0  500    0  0.00000000000E+00  0.00000000000E+00  3.63807667280E+02  3.63807667280E+02  0.00000000000E+00  0.0000E+00  9.0
       -1   -1    0    0    0  500  0.00000000000E+00  0.00000000000E+00 -6.77267923900E+02  6.77267923900E+02  0.00000000000E+00  0.0000E+00  9.0
       13    1    1    2    0    0  1.88265758110E+02  3.66628102000E+02 -4.46842596470E+02  6.07888540808E+02  1.05700000000E-01  0.0000E+00  9.0
      -13    1    1    2    0    0 -1.88265758110E+02 -3.66628102000E+02  1.33382339850E+02  4.33187050371E+02  1.05700000000E-01  0.0000E+00  9.0
</event>
<event>
 4    1   7.6478753E-02   9.9490000E+02  -1.0000000E+00   9.4150000E-02
        2   -1    0    0  500    0  0.00000000000E+00  0.00000000000E+00  2.56054904660E+02  2.56054904660E+02  0.00000000000E+00  0.0000E+00  9.0
       -2   -1    0    0    0  500  0.00000000000E+00  0.00000000000E+00 -9.66350201070E+02  9.66350201070E+02  0.00000000000E+00  0.0000E+00  9.0
       13    1    1    2    0    0 -3.92212007250E+02  1.24805725140E+02 -1.19157640620E+01  4.11762946687E+02  1.05700000000E-01  0.0000E+00  9.0
      -13    1    1    2    0    0  3.92212007250E+02 -1.24805725140E+02 -6.98379532350E+02  8.10642159055E+02  1.05700000000E-01  0.0000E+00  9.0
</event>
<event>
 4    1   7.6478753E-02   1.0000000E+03  -1.0000000E+00   9.4100000E-02
       -1   -1    0    0    0  500  0.00000000000E+00  0.00000000000E+00  1.22347760700E+02  1.22347760700E+02  0.00000000000E+00  0.0000E+00  9.0
        1   -1    0    0  500    0  0.00000000000E+00  0.00000000000E+00 -2.04420086070E+03  2.04420086070E+03  0.00000000000E+00  0.0000E+00  9.0
       13    1    1    2    0    0  4.41965618760E+01 -1.02813973860E+01 -2.03973244760E+03  2.04023712156E+03  1.05700000000E-01  0.0000E+00  9.0
      -13    1    1    2    0    0 -4.41965618760E+01  1.02813973860E+01  1.17879347630E+02  1.26311499809E+02  1.05700000000E-01  0.0000E+00  9.0
</event>
<event>
 4    1   7.6478753E-02   9.9800000E+02  -1.0000000E+00   9.4120000E-02
       -1   -1    0    0    0  500  0.00000000000E+00  0.00000000000E+00  1.44582488720E+02  1.44582488720E+02  0.00000000000E+00  0.0000E+00  9.0
        1   -1    0    0  500    0  0.00000000000E+00  0.00000000000E+00 -1.72210533940E+03  1.72210533940E+03  0.00000000000E+00  0.0000E+00  9.0
       13    1    1    2    0    0 -2.29330826780E+02 -3.67990857480E+02 -1.25064738630E+03  1.32368001999E+03  1.05700000000E-01  0.0000E+00  9.0
      -13    1    1    2    0    0  2.29330826780E+02  3.67990857480E+02 -3.26875464390E+02  5.43007808133E+02  1.05700000000E-01  0.0000E+00  9.0
</event>
<event>
 4    1   7.6478753E-02   1.0030000E+03  -1.0000000E+00   9.4070000E-02
       -2   -1    0    0    0  500  0.00000000000E+00  0.00000000000E+00  1.37410037730E+02  1.37410037730E+02  0.00000000000E+00  0.0000E+00  9.0
        2   -1    0    0  500    0  0.00000000000E+00  0.00000000000E+00 -1.82982083840E+03  1.82982083840E+03  0.00000000000E+00  0.0000E+00  9.0
       13    1    1    2    0    0  1.31264568450E+02  4.75543620950E+02 -6.70057785790E+02  8.32075459214E+02  1.05700000000E-01  0.0000E+00  9.0
      -13    1    1    2    0    0 -1.31264568450E+02 -4.75543620950E+02 -1.02235301490E+03  1.13515541694E+03  1.05700000000E-01  0.0000E+00  9.0
</event>
<event>
 4    1   7.6478753E-02   9.9680000E+02  -1.0000000E+00   9.4130000E-02
        1   -1    0    0  500    0  0.00000000000E+00  0.00000000000E+00  2.32936462950E+02  2.32936462950E+02  0.00000000000E+00  0.0000E+00  9.0
       -1   -1    0    0    0  500  0.00000000000E+00  0.00000000000E+00 -1.06643554400E+03  1.06643554400E+03  0.00000000000E+00  0.0000E+00  9.0
       13    1    1    2    0    0  4.35759165990E+02 -5.58709975680E+00 -7.32013831680E+02  8.51916385199E+02  1.05700000000E-01  0.0000E+00  9.0
      -13    1    1    2    0    0 -4.35759165990E+02  5.58709975680E+00 -1.01485249380E+02  4.47455621757E+02  1.05700000000E-01  0.0000E+00  9.0
</event>
<event>
 4    1   7.6478753E-02   1.0020000E+03  -1.0000000E+00   9.4080000E-02
        1   -1    0    0  500    0  0.00000000000E+00  0.00000000000E+00  2.71744434460E+02  2.71744434460E+02  0.00000000000E+00  0.0000E+00  9.0
       -1   -1    0    0    0  500  0.00000000000E+00  0.00000000000E+00 -9.22985370220E+02  9.22985370220E+02  0.00000000000E+00  0.0000E+00  9.0
       13    1    1    2    0    0  2.15412635280E+02  3.50366982200E+02  1.52248612240E+01  4.11571905292E+02  1.05700000000E-01  0.0000E+00  9.0
      -13    1    1    2    0    0 -2.15412635280E+02 -3.50366982200E+02 -6.66465796980E+02  7.83157899386E+02  1.05700000000E-01  0.0000E+00  9.0
</event>
<event>
 4    1   7.6478753E-02   9.9850000E+02  -1.0000000E+00   9.4110000E-02
       -1   -1    0    0    0  500  0.00000000000E+00  0.00000000000E+00  2.43444959840E+02  2.43444959840E+02  0.00000000000E+00  0.0000E+00  9.0
        1   -1    0    0  500    0  0.00000000000E+00  0.00000000000E+00 -1.02380173280E+03  1.02380173280E+03  0.00000000000E+00  0.0000E+00  9.0
       13    1    1    2    0    0 -1.45338256700E+02 -5.67758077520E+01  2.11702409790E+02  2.62991677986E+02  1.05700000000E-01  0.0000E+00  9.0
      -13    1    1    2    0    0  1.45338256700E+02  5.67758077520E+01 -9.92059182760E+02  1.00425501466E+03  1.05700000000E-01  0.0000E+00  9.0
</event>
<event>
 4    1   7.6478753E-02   1.0000000E+03  -1.0000000E+00   9.4100000E-02
        2   -1    0    0  500    0  0.00000000000E+00  0.00000000000E+00  1.88503921230E+03  1.88503921230E+03  0.00000000000E+00  0.0000E+00  9.0
       -2   -1    0    0    0  500  0.00000000000E+00  0.00000000000E+00 -1.32645539530E+02  1.32645539530E+02  0.00000000000E+00  0.0000E+00  9.0
       13    1    1    2    0    0  3.08283069490E+01 -7.06034434060E+01  1.87299386960E+03  1.87457762642E+03  1.05700000000E-01  0.0000E+00  9.0
      -13    1    1    2    0    0 -3.08283069490E+01  7.06034434060E+01 -1.20600196770E+02  1.43107125482E+02  1.05700000000E-01  0.0000E+00  9.0
</event>
<event>
 4    1   7.6478753E-02   9.9750000E+02  -1.0000000E+00   9.4120000E-02
       -1   -1    0    0    0  500  0.00000000000E+00  0.00000000000E+00  1.39708876140E+02  1.39708876140E+02  0.00000000000E+00  0.0000E+00  9.0
        1   -1    0    0  500    0  0.00000000000E+00  0.00000000000E+00 -1.78043873080E+03  1.78043873080E+03  0.00000000000E+00  0.0000E+00  9.0
       13    1    1    2    0    0 -4.81097680550E+02  4.83275784870E+01 -5.84975618600E+02  7.58938086145E+02  1.05700000000E-01  0.0000E+00  9.0
      -13    1    1    2    0    0  4.81097680550E+02 -4.83275784870E+01 -1.05575423600E+03  1.16120952075E+03  1.05700000000E-01  0.0000E+00  9.0
</event>
<event>
 4    1   7.6478753E-02   9.9960000E+02  -1.0000000E+00   9.4100000E-02
        2   -1    0    0  500    0  0.00000000000E+00  0.00000000000E+00  9.27675319110E+02  9.27675319110E+02  0.00000000000E+00  0.0000E+00  9.0
       -2   -1    0    0    0  500  0.00000000000E+00  0.00000000000E+00 -2.69299459600E+02  2.69299459600E+02  0.00000000000E+00  0.0000E+00  9.0
       13    1    1    2    0    0  3.67273927700E+02  2.93613139810E+02  1.26251985100E+02  4.86865883742E+02  1.05700000000E-01  0.0000E+00  9.0
      -13    1    1    2    0    0 -3.67273927700E+02 -2.93613139810E+02  5.32123874410E+02  7.10108894978E+02  1.05700000000E-01  0.0000E+00  9.0
</event>
<event>
 4    1   7.6478753E-02   1.0010000E+03  -1.0000000E+00   9.4090000E-02
        1   -1    0    0  500    0  0.00000000000E+00  0.00000000000E+00  1.24766793350E+03  1.24766793350E+03  0.00000000000E+00  0.0000E+00  9.0
       -1   -1    0    0    0  500  0.00000000000E+00  0.00000000000E+00 -2.00675120210E+02  2.00675120210E+02  0.00000000000E+00  0.0000E+00  9.0
       13    1    1    2    0    0  1.93166539090E+02  1.45613147230E+02 -1.10426893170E+02  2.65914667474E+02  1.05700000000E-01  0.0000E+00  9.0
      -13    1    1    2    0    0 -1.93166539090E+02 -1.45613147230E+02  1.15741970640E+03  1.18242838616E+03  1.05700000000E-01  0.0000E+00  9.0
</event>
<event>
 4    1   7.6478753E-02   9.9760000E+02  -1.0000000E+00   9.4120000E-02
        2   -1    0    0  500    0  0.00000000000E+00  0.00000000000E+00  4.52528141240E+02  4.52528141240E+02  0.00000000000E+00  0.0000E+00  9.0
       -2   -1    0    0    0  500  0.00000000000E+00  0.00000000000E+00 -5.49793455440E+02  5.49793455440E+02  0.00000000000E+00  0.0000E+00  9.0
       13    1    1    2    0    0  1.39336340390E+02 -2.34363438180E+02  3.71027434410E+02  4.60436971980E+02  1.05700000000E-01  0.0000E+00  9.0
      -13    1    1    2    0    0 -1.39336340390E+02  2.34363438180E+02 -4.68292748610E+02  5.41884624696E+02  1.05700000000E-01  0.0000E+00  9.0
</event>
<event>
 4    1   7.6478753E-02   1.0040000E+03  -1.0000000E+00   9.4050000E-02
       -3   -1    0    0    0  500  0.00000000000E+00  0.00000000000E+00  9.74071512280E+02  9.74071532812E+02  2.00000000000E-01  0.0000E+00  9.0
        3   -1    0    0  500    0  0.00000000000E+00  0.00000000000E+00 -2.58927414690E+02  2.58927491932E+02  2.00000000000E-01  0.0000E+00  9.0
       13    1    1    2    0    0  2.90962643270E+02  2.23356661340E+02  7.78661631690E+02  8.60733063024E+02  1.05700000000E-01  0.0000E+00  9.0
      -13    1    1    2    0    0 -2.90962643270E+02 -2.23356661340E+02 -6.35175341020E+01  3.72265961719E+02  1.05700000000E-01  0.0000E+00  9.0
</event>
<event>
 4    1   7.6478753E-02   9.9780000E+02  -1.0000000E+00   9.4120000E-02
        2   -1    0    0  500    0  0.00000000000E+00  0.00000000000E+00  6.41829351680E+02  6.41829351680E+02  0.00000000000E+00  0.0000E+00  9.0
       -2   -1    0    0    0  500  0.00000000000E+00  0.00000000000E+00 -3.87835602670E+02  3.87835602670E+02  0.00000000000E+00  0.0000E+00  9.0
       13    1    1    2    0    0 -2.92272402410E+02  2.70680224300E+02  4.36964104990E+02  5.91293988858E+02  1.05700000000E-01  0.0000E+00  9.0
      -13    1    1    2    0    0  2.92272402410E+02 -2.70680224300E+02 -1.82970355990E+02  4.38370965486E+02  1.05700000000E-01  0.0000E+00  9.0
</event>
<event>
 4    1   7.6478753E-02   1.0000000E+03  -1.0000000E+00   9.4100000E-02
       -1   -1    0    0    0  500  0.00000000000E+00  0.00000000000E+00  2.22580623940E+02  2.22580623940E+02  0.00000000000E+00  0.0000E+00  9.0
        1   -1    0    0  500    0  0.00000000000E+00  0.00000000000E+00 -1.12321225420E+03  1.12321225420E+03  0.00000000000E+00  0.0000E+00  9.0
       13    1    1    2    0    0 -3.99250688370E+02 -1.96244806190E+02 -7.57472324280E+02  8.78451745597E+02  1.05700000000E-01  0.0000E+00  9.0
      -13    1    1    2    0    0  3.99250688370E+02  1.96244806190E+02 -1.43159306020E+02  4.67341132571E+02  1.05700000000E-01  0.0000E+00  9.0
</event>
<event>
 4    1   7.6478753E-02   1.0030000E+03  -1.0000000E+00   9.4070000E-02
       -3   -1    0    0    0  500  0.00000000000E+00  0.00000000000E+00  6.24469618340E+02  6.24469650367E+02  2.00000000000E-01  0.0000E+00  9.0
        3   -1    0    0  500    0  0.00000000000E+00  0.00000000000E+00 -4.02587922380E+02  4.02587972059E+02  2.00000000000E-01  0.0000E+00  9.0
       13    1    1    2    0    0  3.83529495170E+02  2.81806818470E+01 -2.18577993420E+02  4.42340790426E+02  1.05700000000E-01  0.0000E+00  9.0
      -13    1    1    2    0    0 -3.83529495170E+02 -2.81806818470E+01  4.40459689380E+02  5.84716832010E+02  1.05700000000E-01  0.0000E+00  9.0
</event>
<event>
 4    1   7.6478753E-02   1.0000000E+03  -1.0000000E+00   9.4100000E-02
        1   -1    0    0  500    0  0.00000000000E+00  0.00000000000E+00  4.05040167350E+02  4.05040167350E+02  0.00000000000E+00  0.0000E+00  9.0
       -1   -1    0    0    0  500  0.00000000000E+00  0.00000000000E+00 -6.17434489560E+02  6.17434489560E+02  0.00000000000E+00  0.0000E+00  9.0
       13    1    1    2    0    0  7.60772436920E+01  9.26360066730E+01  3.90135818820E+02  4.08136184427E+02  1.05700000000E-01  0.0000E+00  9.0
      -13    1    1    2    0    0 -7.60772436920E+01 -9.26360066730E+01 -6.02530141040E+02  6.14338472484E+02  1.05700000000E-01  0.0000E+00  9.0
</event>
<event>
 4    1   7.6478753E-02   9.9610000E+02  -1.0000000E+00   9.4140000E-02
       -1   -1    0    0    0  500  0.00000000000E+00  0.00000000000E+00  2.81501800460E+02  2.81501800460E+02  0.00000000000E+00  0.0000E+00  9.0
        1   -1    0    0  500    0  0.00000000000E+00  0.00000000000E+00 -8.81255089450E+02  8.81255089450E+02  0.00000000000E+00  0.0000E+00  9.0
       13    1    1    2    0    0  4.27401909270E+02  1.17087824720E+02 -3.44875313770E+01  4.44489990594E+02  1.05700000000E-01  0.0000E+00  9.0
      -13    1    1    2    0    0 -4.27401909270E+02 -1.17087824720E+02 -5.65265757610E+02  7.18266899310E+02  1.05700000000E-01  0.0000E+00  9.0
</event>
<event>
 4    1   7.6478753E-02   9.9750000E+02  -1.0000000E+00   9.4120000E-02
       -1   -1    0    0    0  500  0.00000000000E+00  0.00000000000E+00  1.95550004650E+02  1.95550004650E+02  0.00000000000E+00  0.0000E+00  9.0
        1   -1    0    0  500    0  0.00000000000E+00  0.00000000000E+00 -1.27215536980E+03  1.27215536980E+03  0.00000000000E+00  0.0000E+00  9.0
       13    1    1    2    0    0 -1.80549194930E+02  2.31242082880E+02 -1.13177767550E+03  1.16918417310E+03  1.05700000000E-01  0.0000E+00  9.0
      -13    1    1    2    0    0  1.80549194930E+02 -2.31242082880E+02  5.51723103130E+01  2.98521201395E+02  1.05700000000E-01  0.0000E+00  9.0
</event>
<event>
 4    1   7.6478753E-02   9.9600000E+02  -1.0000000E+00   9.4140000E-02
        2   -1    0    0  500    0  0.00000000000E+00  0.00000000000E+00  1.15351207920E+03  1.15351207920E+03  0.00000000000E+00  0.0000E+00  9.0
       -2   -1    0    0    0  500  0.00000000000E+00  0.00000000000E+00 -2.15016701640E+02  2.15016701640E+02  0.00000000000E+00  0.0000E+00  9.0
       13    1    1    2    0    0 -6.60217605330E+01 -3.70508028740E+02  2.10953144090E+01  3.76935134588E+02  1.05700000000E-01  0.0000E+00  9.0
      -13    1    1    2    0    0  6.60217605330E+01  3.70508028740E+02  9.17400063150E+02  9.91593646241E+02  1.05700000000E-01  0.0000E+00  9.0
</event>
<event>
 4    1   7.6478753E-02   1.0080000E+03  -1.0000000E+00   9.4010000E-02
        1   -1    0    0  500    0  0.00000000000E+00  0.00000000000E+00  3.81762251480E+02  3.81762251480E+02  0.00000000000E+00  0.0000E+00  9.0
       -1   -1    0    0    0  500  0.00000000000E+00  0.00000000000E+00 -6.65390805510E+02  6.65390805510E+02  0.00000000000E+00  0.0000E+00  9.0
       13    1    1    2    0    0  2.28603533180E+02  1.00160902130E+02 -5.96686610040E+02  6.46781805149E+02  1.05700000000E-01  0.0000E+00  9.0
      -13    1    1    2    0    0 -2.28603533180E+02 -1.00160902130E+02  3.13058056010E+02  4.00371251844E+02  1.05700000000E-01  0.0000E+00  9.0
</event>
<event>
 4    1   7.6478753E-02   9.9680000E+02  -1.0000000E+00   9.4130000E-02
        2   -1    0    0  500    0  0.00000000000E+00  0.00000000000E+00  2.48126209610E+03  2.48126209610E+03  0.00000000000E+00  0.0000E+00  9.0
       -2   -1    0    0    0  500  0.00000000000E+00  0.00000000000E+00 -1.00112826410E+02  1.00112826410E+02  0.00000000000E+00  0.0000E+00  9.0
       13    1    1    2    0    0  2.24299245040E+02 -2.49449019190E+01  2.34136070620E+03  2.35221222834E+03  1.05700000000E-01  0.0000E+00  9.0
      -13    1    1    2    0    0 -2.24299245040E+02  2.49449019190E+01  3.97885635350E+01  2.29162694211E+02  1.05700000000E-01  0.0000E+00  9.0
</event>
<event>
 4    1   7.6478753E-02   9.9760000E+02  -1.0000000E+00   9.4120000E-02
       -1   -1    0    0    0  500  0.00000000000E+00  0.00000000000E+00  1.09110756410E+03  1.09110756410E+03  0.00000000000E+00  0.0000E+00  9.0
        1   -1    0    0  500    0  0.00000000000E+00  0.00000000000E+00 -2.28013256410E+02  2.28013256410E+02  0.00000000000E+00  0.0000E+00  9.0
       13    1    1    2    0    0 -2.27637038880E+02  4.02176161180E+02  1.83375590050E+02  4.97182968624E+02  1.05700000000E-01  0.0000E+00  9.0
      -13    1    1    2    0    0  2.27637038880E+02 -4.02176161180E+02  6.79718717640E+02  8.21937851893E+02  1.05700000000E-01  0.0000E+00  9.0
</event>
<event>
 4    1   7.6478753E-02   9.9990000E+02  -1.0000000E+00   9.4100000E-02
       -2   -1    0    0    0  500  0.00000000000E+00  0.00000000000E+00  4.51161486230E+02  4.51161486230E+02  0.00000000000E+00  0.0000E+00  9.0
        2   -1    0    0  500    0  0.00000000000E+00  0.00000000000E+00 -5.54054187600E+02  5.54054187600E+02  0.00000000000E+00  0.0000E+00  9.0
       13    1    1    2    0    0 -6.94846732150E+01 -3.32282321430E+02 -4.20437918590E+02  5.40377382491E+02  1.05700000000E-01  0.0000E+00  9.0
      -13    1    1    2    0    0  6.94846732150E+01  3.32282321430E+02  3.17545217220E+02  4.64838291343E+02  1.05700000000E-01  0.0000E+00  9.0
</event>
<event>
 4    1   7.6478753E-02   8.8910000E+02  -1.0000000E+00   9.5390000E-02
        2   -1    0    0  500    0  0.00000000000E+00  0.00000000000E+00  1.29088672810E+03  1.29088672810E+03  0.00000000000E+00  0.0000E+00  9.0
       -2   -1    0    0    0  500  0.00000000000E+00  0.00000000000E+00 -1.53078361980E+02  1.53078361980E+02  0.00000000000E+00  0.0000E+00  9.0
       13    1    1    2    0    0  5.16060351340E+01  2.40783766390E+02 -3.21773659010E+01  2.48345322219E+02  1.05700000000E-01  0.0000E+00  9.0
      -13    1    1    2    0    0 -5.16060351340E+01 -2.40783766390E+02  1.16998573200E+03  1.19561976785E+03  1.05700000000E-01  0.0000E+00  9.0
</event>
<event>
 4    1   7.6478753E-02   9.9440000E+02  -1.0000000E+00   9.4160000E-02
       -1   -1    0    0    0  500  0.00000000000E+00  0.00000000000E+00  7.40763891250E+01  7.40763891250E+01  0.00000000000E+00  0.0000E+00  9.0
        1   -1    0    0  500    0  0.00000000000E+00  0.00000000000E+00 -3.33702314220E+03  3.33702314220E+03  0.00000000000E+00  0.0000E+00  9.0
       13    1    1    2    0    0  2.27872610280E+02 -8.76363897350E+01 -1.45715476320E+02  2.84322131628E+02  1.05700000000E-01  0.0000E+00  9.0
      -13    1    1    2    0    0 -2.27872610280E+02  8.76363897350E+01 -3.11723127670E+03  3.12677739965E+03  1.05700000000E-01  0.0000E+00  9.0
</event>
<event>
 4    1   7.6478753E-02   1.0020000E+03  -1.0000000E+00   9.4070000E-02
       -2   -1    0    0    0  500  0.00000000000E+00  0.00000000000E+00  2.33156534500E+02  2.33156534500E+02  0.00000000000E+00  0.0000E+00  9.0
        2   -1    0    0  500    0  0.00000000000E+00  0.00000000000E+00 -1.07739109680E+03  1.07739109680E+03  0.00000000000E+00  0.0000E+00  9.0
       13    1    1    2    0    0 -9.34817060570E+01 -2.45418992900E+02 -9.80232666560E+02  1.01480313520E+03  1.05700000000E-01  0.0000E+00  9.0
      -13    1    1    2    0    0  9.34817060570E+01  2.45418992900E+02  1.35998104260E+02  2.95744496108E+02  1.05700000000E-01  0.0000E+00  9.0
</event>
<event>
 4    1   7.6478753E-02   1.0030000E+03  -1.0000000E+00   9.4070000E-02
       -2   -1    0    0    0  500  0.00000000000E+00  0.00000000000E+00  1.83384479360E+02  1.83384479360E+02  0.00000000000E+00  0.0000E+00  9.0
        2   -1    0    0  500    0  0.00000000000E+00  0.00000000000E+00 -1.37072766330E+03  1.37072766330E+03  0.00000000000E+00  0.0000E+00  9.0
       13    1    1    2    0    0 -2.40942066150E+02  2.89040328350E+02 -8.01688031780E+01  3.84739442778E+02  1.05700000000E-01  0.0000E+00  9.0
      -13    1    1    2    0    0  2.40942066150E+02 -2.89040328350E+02 -1.10717438080E+03  1.16937269992E+03  1.05700000000E-01  0.0000E+00  9.0
</event>
<event>
 4    1   7.6478753E-02   9.9280000E+02  -1.0000000E+00   9.4180000E-02
        1   -1    0    0  500    0  0.00000000000E+00  0.00000000000E+00  9.04901924580E+02  9.04901924580E+02  0.00000000000E+00  0.0000E+00  9.0
       -1   -1    0    0    0  500  0.00000000000E+00  0.00000000000E+00 -2.72334854650E+02  2.72334854650E+02  0.00000000000E+00  0.0000E+00  9.0
       13    1    1    2    0    0 -3.54647885620E+02  1.04465622450E+02 -7.65241976670E+01  3.77550199377E+02  1.05700000000E-01  0.0000E+00  9.0
      -13    1    1    2    0    0  3.54647885620E+02 -1.04465622450E+02  7.09091267590E+02  7.99686579851E+02  1.05700000000E-01  0.0000E+00  9.0
</event>
<event>
 4    1   7.6478753E-02   9.9800000E+02  -1.0000000E+00   9.4120000E-02
        2   -1    0    0  500    0  0.00000000000E+00  0.00000000000E+00  1.06382895560E+03  1.06382895560E+03  0.00000000000E+00  0.0000E+00  9.0
       -2   -1    0    0    0  500  0.00000000000E+00  0.00000000000E+00 -2.34060829690E+02  2.34060829690E+02  0.00000000000E+00  0.0000E+00  9.0
       13    1    1    2    0    0  6.39737453780E+01 -2.47861881340E+02  9.71932632860E+02  1.00507771158E+03  1.05700000000E-01  0.0000E+00  9.0
      -13    1    1    2    0    0 -6.39737453780E+01  2.47861881340E+02 -1.42164506940E+02  2.92812073735E+02  1.05700000000E-01  0.0000E+00  9.0
</event>
<event>
 4    1   7.6478753E-02   9.9750000E+02  -1.0000000E+00   9.4120000E-02
       -1   -1    0    0    0  500  0.00000000000E+00  0.00000000000E+00  2.93612029810E+02  2.93612029810E+02  0.00000000000E+00  0.0000E+00  9.0
        1   -1    0    0  500    0  0.00000000000E+00  0.00000000000E+00 -8.47163334900E+02  8.47163334900E+02  0.00000000000E+00  0.0000E+00  9.0
       13    1    1    2    0    0  1.15260715180E+02  2.90035147040E+02  1.68126908250E+02  3.54502591574E+02  1.05700000000E-01  0.0000E+00  9.0
      -13    1    1    2    0    0 -1.15260715180E+02 -2.90035147040E+02 -7.21678213350E+02  7.86272773138E+02  1.05700000000E-01  0.0000E+00  9.0
</event>
<event>
 4    1   7.6478753E-02   9.9800000E+02  -1.0000000E+00   9.4120000E-02
        3   -1    0    0  500    0  0.00000000000E+00  0.00000000000E+00  4.21317030630E+02  4.21317078100E+02  2.00000000000E-01  0.0000E+00  9.0
       -3   -1    0    0    0  500  0.00000000000E+00  0.00000000000E+00 -5.90982816320E+02  5.90982850162E+02  2.00000000000E-01  0.0000E+00  9.0
       13    1    1    2    0    0  4.30628544660E+02 -1.02435032370E+02  1.48813841340E+02  4.66989774920E+02  1.05700000000E-01  0.0000E+00  9.0
      -13    1    1    2    0    0 -4.30628544660E+02  1.02435032370E+02 -3.18479627030E+02  5.45310153342E+02  1.05700000000E-01  0.0000E+00  9.0
</event>
<event>
 4    1   7.6478753E-02   9.9800000E+02  -1.0000000E+00   9.4120000E-02
        1   -1    0    0  500    0  0.00000000000E+00  0.00000000000E+00  1.71544709600E+03  1.71544709600E+03  0.00000000000E+00  0.0000E+00  9.0
       -1   -1    0    0    0  500  0.00000000000E+00  0.00000000000E+00 -1.45161844880E+02  1.45161844880E+02  0.00000000000E+00  0.0000E+00  9.0
       13    1    1    2    0    0 -2.17829577810E+02 -3.23726120230E+02  2.05208562770E+02  4.40861533018E+02  1.05700000000E-01  0.0000E+00  9.0
      -13    1    1    2    0    0  2.17829577810E+02  3.23726120230E+02  1.36507668830E+03  1.41974740782E+03  1.05700000000E-01  0.0000E+00  9.0
</event>
<event>
 4    1   7.6478753E-02   1.0020000E+03  -1.0000000E+00   9.4080000E-02
        2   -1    0    0  500    0  0.00000000000E+00  0.00000000000E+00  1.26415407090E+03  1.26415407090E+03  0.00000000000E+00  0.0000E+00  9.0
       -2   -1    0    0    0  500  0.00000000000E+00  0.00000000000E+00 -1.98446191030E+02  1.98446191030E+02  0.00000000000E+00  0.0000E+00  9.0
       13    1    1    2    0    0 -8.84977804070E+01 -2.51389628550E+02  1.15203110470E+03  1.18245688287E+03  1.05700000000E-01  0.0000E+00  9.0
      -13    1    1    2    0    0  8.84977804070E+01  2.51389628550E+02 -8.63232248740E+01  2.80143379013E+02  1.05700000000E-01  0.0000E+00  9.0
</event>
<event>
 4    1   7.6478753E-02   1.0020000E+03  -1.0000000E+00   9.4080000E-02
        1   -1    0    0  500    0  0.00000000000E+00  0.00000000000E+00  6.42817929030E+02  6.42817929030E+02  0.00000000000E+00  0.0000E+00  9.0
       -1   -1    0    0    0  500  0.00000000000E+00  0.00000000000E+00 -3.90440315870E+02  3.90440315870E+02  0.00000000000E+00  0.0000E+00  9.0
       13    1    1    2    0    0  2.18193189640E+02 -3.76400061960E+02 -1.29957859160E+02  4.54064236622E+02  1.05700000000E-01  0.0000E+00  9.0
      -13    1    1    2    0    0 -2.18193189640E+02  3.76400061960E+02  3.82335472330E+02  5.79194008276E+02  1.05700000000E-01  0.0000E+00  9.0
</event>
<event>
 4    1   7.6478753E-02   9.9380000E+02  -1.0000000E+00   9.4160000E-02
        1   -1    0    0  500    0  0.00000000000E+00  0.00000000000E+00  1.71628489710E+03  1.71628489710E+03  0.00000000000E+00  0.0000E+00  9.0
       -1   -1    0    0    0  500  0.00000000000E+00  0.00000000000E+00 -1.43859243690E+02  1.43859243690E+02  0.00000000000E+00  0.0000E+00  9.0
       13    1    1    2    0    0  2.40553443880E+02  3.63793183570E+02  1.23188334030E+03  1.30680833142E+03  1.05700000000E-01  0.0000E+00  9.0
      -13    1    1    2    0    0 -2.40553443880E+02 -3.63793183570E+02  3.40542313170E+02  5.53335809438E+02  1.05700000000E-01  0.0000E+00  9.0
</event>
<event>
 4    1   7.6478753E-02   9.8980000E+02  -1.0000000E+00   9.4210000E-02
       -1   -1    0    0    0  500  0.00000000000E+00  0.00000000000E+00  5.29970306680E+02  5.29970306680E+02  0.00000000000E+00  0.0000E+00  9.0
        1   -1    0    0  500    0  0.00000000000E+00  0.00000000000E+00 -4.62131412250E+02  4.62131412250E+02  0.00000000000E+00  0.0000E+00  9.0
       13    1    1    2    0    0 -9.06056093700E+01  9.18459166460E+01  5.12817351280E+02  5.28797405251E+02  1.05700000000E-01  0.0000E+00  9.0
      -13    1    1    2    0    0  9.06056093700E+01 -9.18459166460E+01 -4.44978456850E+02  4.63304313693E+02  1.05700000000E-01  0.0000E+00  9.0
</event>
<event>
 4    1   7.6478753E-02   1.0010000E+03  -1.0000000E+00   9.4090000E-02
        1   -1    0    0  500    0  0.00000000000E+00  0.00000000000E+00  6.20226526130E+02  6.20226526130E+02  0.00000000000E+00  0.0000E+00  9.0
       -1   -1    0    0    0  500  0.00000000000E+00  0.00000000000E+00 -4.03758488190E+02  4.03758488190E+02  0.00000000000E+00  0.0000E+00  9.0
       13    1    1    2    0    0 -9.92380662610E+00 -1.55760259940E+02  5.94687550890E+02  6.14827646475E+02  1.05700000000E-01  0.0000E+00  9.0
      -13    1    1    2    0    0  9.92380662610E+00  1.55760259940E+02 -3.78219512950E+02  4.09157367847E+02  1.05700000000E-01  0.0000E+00  9.0
</event>
<event>
 4    1   7.6478753E-02   9.2060000E+02  -1.0000000E+00   9.5000000E-02
        1   -1    0    0  500    0  0.00000000000E+00  0.00000000000E+00  3.32941892940E+03  3.32941892940E+03  0.00000000000E+00  0.0000E+00  9.0
       -1   -1    0    0    0  500  0.00000000000E+00  0.00000000000E+00 -6.36324608930E+01  6.36324608930E+01  0.00000000000E+00  0.0000E+00  9.0
       13    1    1    2    0    0 -2.49561699110E+02  3.85038921900E+02  1.76696350110E+03  1.82556731961E+03  1.05700000000E-01  0.0000E+00  9.0
      -13    1    1    2    0    0  2.49561699110E+02 -3.85038921900E+02  1.49882296740E+03  1.56748407067E+03  1.05700000000E-01  0.0000E+00  9.0
</event>
<event>
 4    1   7.6478753E-02   9.3800000E+02  -1.0000000E+00   9.4790000E-02
       -2   -1    0    0    0  500  0.00000000000E+00  0.00000000000E+00  1.61390713510E+02  1.61390713510E+02  0.00000000000E+00  0.0000E+00  9.0
        2   -1    0    0  500    0  0.00000000000E+00  0.00000000000E+00 -1.36289067390E+03  1.36289067390E+03  0.00000000000E+00  0.0000E+00  9.0
       13    1    1    2    0    0  1.42816990700E+02 -1.01227811800E+02 -1.30781097320E+03  1.31947463618E+03  1.05700000000E-01  0.0000E+00  9.0
      -13    1    1    2    0    0 -1.42816990700E+02  1.01227811800E+02  1.06311012840E+02  2.04806751202E+02  1.05700000000E-01  0.0000E+00  9.0
</event>
<event>
 4    1   7.6478753E-02   9.5840000E+02  -1.0000000E+00   9.4560000E-02
        2   -1    0    0  500    0  0.00000000000E+00  0.00000000000E+00  1.38004324490E+03  1.38004324490E+03  0.00000000000E+00  0.0000E+00  9.0
       -2   -1    0    0    0  500  0.00000000000E+00  0.00000000000E+00 -1.66382743600E+02  1.66382743600E+02  0.00000000000E+00  0.0000E+00  9.0
       13    1    1    2    0    0  1.59519100460E+02 -2.70978379450E+02  1.19027867550E+03  1.23111289574E+03  1.05700000000E-01  0.0000E+00  9.0
      -13    1    1    2    0    0 -1.59519100460E+02  2.70978379450E+02  2.33818258520E+01  3.15313092804E+02  1.05700000000E-01  0.0000E+00  9.0
</event>
<event>
 4    1   7.6478753E-02   1.0030000E+03  -1.0000000E+00   9.4070000E-02
        1   -1    0    0  500    0  0.00000000000E+00  0.00000000000E+00  3.06082985000E+03  3.06082985000E+03  0.00000000000E+00  0.0000E+00  9.0
       -1   -1    0    0    0  500  0.00000000000E+00  0.00000000000E+00 -8.21492802940E+01  8.21492802940E+01  0.00000000000E+00  0.0000E+00  9.0
       13    1    1    2    0    0  5.33546110130E+01 -4.02097887360E+02  5.65411018720E+02  6.95858503432E+02  1.05700000000E-01  0.0000E+00  9.0
      -13    1    1    2    0    0 -5.33546110130E+01  4.02097887360E+02  2.41326955100E+03  2.44712062688E+03  1.05700000000E-01  0.0000E+00  9.0
</event>
<event>
 4    1   7.6478753E-02   9.9850000E+02  -1.0000000E+00   9.4110000E-02
       -1   -1    0    0    0  500  0.00000000000E+00  0.00000000000E+00  2.36902044800E+02  2.36902044800E+02  0.00000000000E+00  0.0000E+00  9.0
        1   -1    0    0  500    0  0.00000000000E+00  0.00000000000E+00 -1.05211225860E+03  1.05211225860E+03  0.00000000000E+00  0.0000E+00  9.0
       13    1    1    2    0    0  4.90224705970E+02  3.33181450920E+01 -5.21744920880E+02  7.16692496662E+02  1.05700000000E-01  0.0000E+00  9.0
      -13    1    1    2    0    0 -4.90224705970E+02 -3.33181450920E+01 -2.93465292890E+02  5.72321806713E+02  1.05700000000E-01  0.0000E+00  9.0
</event>
<event>
 4    1   7.6478753E-02   1.0060000E+03  -1.0000000E+00   9.4030000E-02
       -1   -1    0    0    0  500  0.00000000000E+00  0.00000000000E+00  1.09136085630E+02  1.09136085630E+02  0.00000000000E+00  0.0000E+00  9.0
        1   -1    0    0  500    0  0.00000000000E+00  0.00000000000E+00 -2.31801970300E+03  2.31801970300E+03  0.00000000000E+00  0.0000E+00  9.0
       13    1    1    2    0    0  3.68670150040E+02  3.41975564350E+02 -1.07861003950E+03  1.19006915540E+03  1.05700000000E-01  0.0000E+00  9.0
      -13    1    1    2    0    0 -3.68670150040E+02 -3.41975564350E+02 -1.13027357790E+03  1.23708663327E+03  1.05700000000E-01  0.0000E+00  9.0
</event>
<event>
 4    1   7.6478753E-02   1.0070000E+03  -1.0000000E+00   9.4020000E-02
       -1   -1    0    0    0  500  0.00000000000E+00  0.00000000000E+00  1.30692784750E+02  1.30692784750E+02  0.00000000000E+00  0.0000E+00  9.0
        1   -1    0    0  500    0  0.00000000000E+00  0.00000000000E+00 -1.94041469380E+03  1.94041469380E+03  0.00000000000E+00  0.0000E+00  9.0
       13    1    1    2    0    0  2.90727915660E+02  1.24008876050E+02 -9.86798224070E+01  3.31117261413E+02  1.05700000000E-01  0.0000E+00  9.0
      -13    1    1    2    0    0 -2.90727915660E+02 -1.24008876050E+02 -1.71104208660E+03  1.73999021709E+03  1.05700000000E-01  0.0000E+00  9.0
</event>
<event>
 4    1   7.6478753E-02   9.9910000E+02  -1.0000000E+00   9.4110000E-02
        1   -1    0    0  500    0  0.00000000000E+00  0.00000000000E+00  1.01546943150E+03  1.01546943150E+03  0.00000000000E+00  0.0000E+00  9.0
       -1   -1    0    0    0  500  0.00000000000E+00  0.00000000000E+00 -2.45733833630E+02  2.45733833630E+02  0.00000000000E+00  0.0000E+00  9.0
       13    1    1    2    0    0 -4.84865024250E+02 -4.45290470350E+01  2.43965579150E+02  5.44606410863E+02  1.05700000000E-01  0.0000E+00  9.0
      -13    1    1    2    0    0  4.84865024250E+02  4.45290470350E+01  5.25770018690E+02  7.16596854233E+02  1.05700000000E-01  0.0000E+00  9.0
</event>
<event>
 4    1   7.6478753E-02   1.0190000E+03  -1.0000000E+00   9.3890000E-02
        1   -1    0    0  500    0  0.00000000000E+00  0.00000000000E+00  2.29808098550E+02  2.29808098550E+02  0.00000000000E+00  0.0000E+00  9.0
       -1   -1    0    0    0  500  0.00000000000E+00  0.00000000000E+00 -1.12992451390E+03  1.12992451390E+03  0.00000000000E+00  0.0000E+00  9.0
       13    1    1    2    0    0 -3.73871425460E+02  9.59289076790E+01 -8.93930224060E+02  9.73700906215E+02  1.05700000000E-01  0.0000E+00  9.0
      -13    1    1    2    0    0  3.73871425460E+02 -9.59289076790E+01 -6.18619132630E+00  3.86031706262E+02  1.05700000000E-01  0.0000E+00  9.0
</event>
<event>
 4    1   7.6478753E-02   1.0070000E+03  -1.0000000E+00   9.4030000E-02
       -1   -1    0    0    0  500  0.00000000000E+00  0.00000000000E+00  1.00078862990E+03  1.00078862990E+03  0.00000000000E+00  0.0000E+00  9.0
        1   -1    0    0  500    0  0.00000000000E+00  0.00000000000E+00 -2.53120488350E+02  2.53120488350E+02  0.00000000000E+00  0.0000E+00  9.0
       13    1    1    2    0    0  2.67101002190E+02 -9.26782705610E+01  8.92527340010E+02  9.36235692036E+02  1.05700000000E-01  0.0000E+00  9.0
      -13    1    1    2    0    0 -2.67101002190E+02  9.26782705610E+01 -1.44859198430E+02  3.17673426253E+02  1.05700000000E-01  0.0000E+00  9.0
</event>
<event>
 4    1   7.6478753E-02   9.8460000E+02  -1.0000000E+00   9.4270000E-02
        1   -1    0    0  500    0  0.00000000000E+00  0.00000000000E+00  1.42843824550E+03  1.42843824550E+03  0.00000000000E+00  0.0000E+00  9.0
       -1   -1    0    0    0  500  0.00000000000E+00  0.00000000000E+00 -1.69655376620E+02  1.69655376620E+02  0.00000000000E+00  0.0000E+00  9.0
       13    1    1    2    0    0 -2.64966282360E+02  2.42975915290E+02  8.35270797460E+01  3.69081576920E+02  1.05700000000E-01  0.0000E+00  9.0
      -13    1    1    2    0    0  2.64966282360E+02 -2.42975915290E+02  1.17525578910E+03  1.22901204517E+03  1.05700000000E-01  0.0000E+00  9.0
</event>
<event>
 4    1   7.6478753E-02   9.9780000E+02  -1.0000000E+00   9.4120000E-02
       -1   -1    0    0    0  500  0.00000000000E+00  0.00000000000E+00  5.41288211590E+02  5.41288211590E+02  0.00000000000E+00  0.0000E+00  9.0
        1   -1    0    0  500    0  0.00000000000E+00  0.00000000000E+00 -4.59862581690E+02  4.59862581690E+02  0.00000000000E+00  0.0000E+00  9.0
       13    1    1    2    0    0 -8.14177048150E+01 -2.85559762350E+02  4.42975608480E+02  5.33292247657E+02  1.05700000000E-01  0.0000E+00  9.0
      -13    1    1    2    0    0  8.14177048150E+01  2.85559762350E+02 -3.61549978580E+02  4.67858545625E+02  1.05700000000E-01  0.0000E+00  9.0
</event>
<event>
 4    1   7.6478753E-02   9.9090000E+02  -1.0000000E+00   9.4200000E-02
        1   -1    0    0  500    0  0.00000000000E+00  0.00000000000E+00  2.20727252750E+03  2.20727252750E+03  0.00000000000E+00  0.0000E+00  9.0
       -1   -1    0    0    0  500  0.00000000000E+00  0.00000000000E+00 -1.11217864120E+02  1.11217864120E+02  0.00000000000E+00  0.0000E+00  9.0
       13    1    1    2    0    0 -3.07583235700E+02 -2.61359100450E+02  3.75706277390E+02  5.51426553871E+02  1.05700000000E-01  0.0000E+00  9.0
      -13    1    1    2    0    0  3.07583235700E+02  2.61359100450E+02  1.72034838600E+03  1.76706383774E+03  1.05700000000E-01  0.0000E+00  9.0
</event>
<event>
 4    1   7.6478753E-02   9.9870000E+02  -1.0000000E+00   9.4110000E-02
        1   -1    0    0  500    0  0.00000000000E+00  0.00000000000E+00  7.11703087420E+02  7.11703087420E+02  0.00000000000E+00  0.0000E+00  9.0
       -1   -1    0    0    0  500  0.00000000000E+00  0.00000000000E+00 -3.50382920170E+02  3.50382920170E+02  0.00000000000E+00  0.0000E+00  9.0
       13    1    1    2    0    0  3.55487017670E+02  2.89374188700E+02 -3.00497492360E+01  4.59359814763E+02  1.05700000000E-01  0.0000E+00  9.0
      -13    1    1    2    0    0 -3.55487017670E+02 -2.89374188700E+02  3.91369916480E+02  6.02726192824E+02  1.05700000000E-01  0.0000E+00  9.0
</event>
<event>
 4    1   7.6478753E-02   9.9800000E+02  -1.0000000E+00   9.4120000E-02
       -3   -1    0    0    0  500  0.00000000000E+00  0.00000000000E+00  4.97003456820E+02  4.97003497061E+02  2.00000000000E-01  0.0000E+00  9.0
        3   -1    0    0  500    0  0.00000000000E+00  0.00000000000E+00 -5.00997722030E+02  5.00997761950E+02  2.00000000000E-01  0.0000E+00  9.0
       13    1    1    2    0    0  1.14691134640E+02  8.59778044510E+01 -4.79966847890E+02  5.00913590821E+02  1.05700000000E-01  0.0000E+00  9.0
      -13    1    1    2    0    0 -1.14691134640E+02 -8.59778044510E+01  4.75972582690E+02  4.97087668192E+02  1.05700000000E-01  0.0000E+00  9.0
</event>
<event>
 4    1   7.6478753E-02   9.9920000E+02  -1.0000000E+00   9.4110000E-02
        1   -1    0    0  500    0  0.00000000000E+00  0.00000000000E+00  2.36165542740E+02  2.36165542740E+02  0.00000000000E+00  0.0000E+00  9.0
       -1   -1    0    0    0  500  0.00000000000E+00  0.00000000000E+00 -1.05689612600E+03  1.05689612600E+03  0.00000000000E+00  0.0000E+00  9.0
       13    1    1    2    0    0 -1.63009427430E+02 -1.55871763550E+02  1.66535717200E+02  2.80360903799E+02  1.05700000000E-01  0.0000E+00  9.0
      -13    1    1    2    0    0  1.63009427430E+02  1.55871763550E+02 -9.87266300490E+02  1.01270076496E+03  1.05700000000E-01  0.0000E+00  9.0
</event>
<event>
 4    1   7.6478753E-02   1.0000000E+03  -1.0000000E+00   9.4100000E-02
        1   -1    0    0  500    0  0.00000000000E+00  0.00000000000E+00  2.56398789670E+02  2.56398789670E+02  0.00000000000E+00  0.0000E+00  9.0
       -1   -1    0    0    0  500  0.00000000000E+00  0.00000000000E+00 -9.74998898200E+02  9.74998898200E+02  0.00000000000E+00  0.0000E+00  9.0
       13    1    1    2    0    0 -2.20138972080E+02 -2.98003651170E+02  5.41385820570E+01  3.74430688351E+02  1.05700000000E-01  0.0000E+00  9.0
      -13    1    1    2    0    0  2.20138972080E+02  2.98003651170E+02 -7.72738690590E+02  8.56966999508E+02  1.05700000000E-01  0.0000E+00  9.0
</event>
<event>
 4    1   7.6478753E-02   9.9910000E+02  -1.0000000E+00   9.4110000E-02
       -1   -1    0    0    0  500  0.00000000000E+00  0.00000000000E+00  4.57961482390E+02  4.57961482390E+02  0.00000000000E+00  0.0000E+00  9.0
        1   -1    0    0  500    0  0.00000000000E+00  0.00000000000E+00 -5.44969601170E+02  5.44969601170E+02  0.00000000000E+00  0.0000E+00  9.0
       13    1    1    2    0    0  3.14001790180E+02  1.19950264100E+02  3.27475303190E+02  4.69281658991E+02  1.05700000000E-01  0.0000E+00  9.0
      -13    1    1    2    0    0 -3.14001790180E+02 -1.19950264100E+02 -4.14483421970E+02  5.33649424580E+02  1.05700000000E-01  0.0000E+00  9.0
</event>
<event>
 4    1   7.6478753E-02   1.0030000E+03  -1.0000000E+00   9.4060000E-02
       -1   -1    0    0    0  500  0.00000000000E+00  0.00000000000E+00  2.38105984150E+02  2.38105984150E+02  0.00000000000E+00  0.0000E+00  9.0
        1   -1    0    0  500    0  0.00000000000E+00  0.00000000000E+00 -1.05665823760E+03  1.05665823760E+03  0.00000000000E+00  0.0000E+00  9.0
       13    1    1    2    0    0 -7.44024196940E+00 -1.16779182300E+02  2.20243176870E+02  2.49398882815E+02  1.05700000000E-01  0.0000E+00  9.0
      -13    1    1    2    0    0  7.44024196940E+00  1.16779182300E+02 -1.03879543030E+03  1.04536533891E+03  1.05700000000E-01  0.0000E+00  9.0
</event>
<event>
 4    1   7.6478753E-02   1.0130000E+03  -1.0000000E+00   9.3960000E-02
       -2   -1    0    0    0  500  0.00000000000E+00  0.00000000000E+00  1.93004123610E+02  1.93004123610E+02  0.00000000000E+00  0.0000E+00  9.0
        2   -1    0    0  500    0  0.00000000000E+00  0.00000000000E+00 -1.32811332150E+03  1.32811332150E+03  0.00000000000E+00  0.0000E+00  9.0
       13    1    1    2    0    0 -2.63435682160E+02 -2.02912989570E+02  5.96732310190E+00  3.32577299419E+02  1.05700000000E-01  0.0000E+00  9.0
      -13    1    1    2    0    0  2.63435682160E+02  2.02912989570E+02 -1.14107652100E+03  1.18854014569E+03  1.05700000000E-01  0.0000E+00  9.0
</event>
<event>
 4    1   7.6478753E-02   1.0030000E+03  -1.0000000E+00   9.4060000E-02
       -1   -1    0    0    0  500  0.00000000000E+00  0.00000000000E+00  1.78176821260E+02  1.78176821260E+02  0.00000000000E+00  0.0000E+00  9.0
        1   -1    0    0  500    0  0.00000000000E+00  0.00000000000E+00 -1.41264255220E+03  1.41264255220E+03  0.00000000000E+00  0.0000E+00  9.0
       13    1    1    2    0    0 -4.87272436080E+02  1.19214577560E+02 -6.05624918640E+02  7.86401993713E+02  1.05700000000E-01  0.0000E+00  9.0
      -13    1    1    2    0    0  4.87272436080E+02 -1.19214577560E+02 -6.28840812340E+02  8.04417379787E+02  1.05700000000E-01  0.0000E+00  9.0
</event>
<event>
 4    1   7.6478753E-02   1.0030000E+03  -1.0000000E+00   9.4070000E-02
        1   -1    0    0  500    0  0.00000000000E+00  0.00000000000E+00  7.44260242050E+02  7.44260242050E+02  0.00000000000E+00  0.0000E+00  9.0
       -1   -1    0    0    0  500  0.00000000000E+00  0.00000000000E+00 -3.37638348960E+02  3.37638348960E+02  0.00000000000E+00  0.0000E+00  9.0
       13    1    1    2    0    0  2.62264061210E+02  4.23414208530E+02  2.64628672150E+02  5.63995013350E+02  1.05700000000E-01  0.0000E+00  9.0
      -13    1    1    2    0    0 -2.62264061210E+02 -4.23414208530E+02  1.41993220950E+02  5.17903577663E+02  1.05700000000E-01  0.0000E+00  9.0
</event>
<event>
 4    1   7.6478753E-02   9.9820000E+02  -1.0000000E+00   9.4120000E-02
       -1   -1    0    0    0  500  0.00000000000E+00  0.00000000000E+00  8.46404211910E+02  8.46404211910E+02  0.00000000000E+00  0.0000E+00  9.0
        1   -1    0    0  500    0  0.00000000000E+00  0.00000000000E+00 -2.94283276660E+02  2.94283276660E+02  0.00000000000E+00  0.0000E+00  9.0
       13    1    1    2    0    0  1.43328130080E+01 -3.52665473170E+02 -1.27173429570E+02  3.75168572586E+02  1.05700000000E-01  0.0000E+00  9.0
      -13    1    1    2    0    0 -1.43328130080E+01  3.52665473170E+02  6.79294364810E+02  7.65518915984E+02  1.05700000000E-01  0.0000E+00  9.0
</event>
<event>
 4    1   7.6478753E-02   9.9350000E+02  -1.0000000E+00   9.4170000E-02
       -1   -1    0    0    0  500  0.00000000000E+00  0.00000000000E+00  2.02102676380E+02  2.02102676380E+02  0.00000000000E+00  0.0000E+00  9.0
        1   -1    0    0  500    0  0.00000000000E+00  0.00000000000E+00 -1.22096256260E+03  1.22096256260E+03  0.00000000000E+00  0.0000E+00  9.0
       13    1    1    2    0    0  2.35418962140E+02 -3.80382585530E+02 -2.00066853510E+02  4.90040565826E+02  1.05700000000E-01  0.0000E+00  9.0
      -13    1    1    2    0    0 -2.35418962140E+02  3.80382585530E+02 -8.18793032680E+02  9.33024673118E+02  1.05700000000E-01  0.0000E+00  9.0
</event>
<event>
 4    1   7.6478753E-02   1.0000000E+03  -1.0000000E+00   9.4100000E-02
       -2   -1    0    0    0  500  0.00000000000E+00  0.00000000000E+00  3.05792044360E+02  3.05792044360E+02  0.00000000000E+00  0.0000E+00  9.0
        2   -1    0    0  500    0  0.00000000000E+00  0.00000000000E+00 -8.17862891970E+02  8.17862891970E+02  0.00000000000E+00  0.0000E+00  9.0
       13    1    1    2    0    0  1.62341530530E+02 -4.13285672350E+02  2.44385905850E+00  4.44033560808E+02  1.05700000000E-01  0.0000E+00  9.0
      -13    1    1    2    0    0 -1.62341530530E+02  4.13285672350E+02 -5.14514706670E+02  6.79621375515E+02  1.05700000000E-01  0.0000E+00  9.0
</event>
<event>
 4    1   7.6478753E-02   9.9710000E+02  -1.0000000E+00   9.4130000E-02
       -1   -1    0    0    0  500  0.00000000000E+00  0.00000000000E+00  1.39015367880E+03  1.39015367880E+03  0.00000000000E+00  0.0000E+00  9.0
        1   -1    0    0  500    0  0.00000000000E+00  0.00000000000E+00 -1.78779615340E+02  1.78779615340E+02  0.00000000000E+00  0.0000E+00  9.0
       13    1    1    2    0    0  4.14047643210E+02  7.51030790140E+01  1.02631777720E+03  1.10923582447E+03  1.05700000000E-01  0.0000E+00  9.0
      -13    1    1    2    0    0 -4.14047643210E+02 -7.51030790140E+01  1.85056286200E+02  4.59697469603E+02  1.05700000000E-01  0.0000E+00  9.0
</event>
<event>
 4    1   7.6478753E-02   1.0040000E+03  -1.0000000E+00   9.4050000E-02
        2   -1    0    0  500    0  0.00000000000E+00  0.00000000000E+00  3.52237503290E+03  3.52237503290E+03  0.00000000000E+00  0.0000E+00  9.0
       -2   -1    0    0    0  500  0.00000000000E+00  0.00000000000E+00 -7.15936231240E+01  7.15936231240E+01  0.00000000000E+00  0.0000E+00  9.0
       13    1    1    2    0    0  4.50554350490E+02  1.99273883820E+02  2.07362427720E+03  2.13134393228E+03  1.05700000000E-01  0.0000E+00  9.0
      -13    1    1    2    0    0 -4.50554350490E+02 -1.99273883820E+02  1.37715713260E+03  1.46262472376E+03  1.05700000000E-01  0.0000E+00  9.0
</event>
<event>
 4    1   7.6478753E-02   1.0220000E+03  -1.0000000E+00   9.3870000E-02
       -1   -1    0    0    0  500  0.00000000000E+00  0.00000000000E+00  6.52428125950E+01  6.52428125950E+01  0.00000000000E+00  0.0000E+00  9.0
        1   -1    0    0  500    0  0.00000000000E+00  0.00000000000E+00 -3.99981963110E+03  3.99981963110E+03  0.00000000000E+00  0.0000E+00  9.0
       13    1    1    2    0    0 -4.98782764500E+01 -2.62473921140E+02 -3.69967924670E+03  3.70931354045E+03  1.05700000000E-01  0.0000E+00  9.0
      -13    1    1    2    0    0  4.98782764500E+01  2.62473921140E+02 -2.34897571780E+02  3.55748903218E+02  1.05700000000E-01  0.0000E+00  9.0
</event>
<event>
 4    1   7.6478753E-02   9.9670000E+02  -1.0000000E+00   9.4130000E-02
        1   -1    0    0  500    0  0.00000000000E+00  0.00000000000E+00  4.39891081080E+02  4.39891081080E+02  0.00000000000E+00  0.0000E+00  9.0
       -1   -1    0    0    0  500  0.00000000000E+00  0.00000000000E+00 -5.64547629810E+02  5.64547629810E+02  0.00000000000E+00  0.0000E+00  9.0
       13    1    1    2    0    0 -2.11908207060E+02 -1.69988749150E+02  3.58704410460E+02  4.49966808012E+02  1.05700000000E-01  0.0000E+00  9.0
      -13    1    1    2    0    0  2.11908207060E+02  1.69988749150E+02 -4.83360959180E+02  5.54471902885E+02  1.05700000000E-01  0.0000E+00  9.0
</event>
<event>
 4    1   7.6478753E-02   1.0020000E+03  -1.0000000E+00   9.4070000E-02
       -3   -1    0    0    0  500  0.00000000000E+00  0.00000000000E+00  2.47977429700E+03  2.47977430507E+03  2.00000000000E-01  0.0000E+00  9.0
        3   -1    0    0  500    0  0.00000000000E+00  0.00000000000E+00 -1.01317297980E+02  1.01317495379E+02  2.00000000000E-01  0.0000E+00  9.0
       13    1    1    2    0    0  7.69061986360E+01  4.49855270900E+02  1.72287942840E+03  1.78230128321E+03  1.05700000000E-01  0.0000E+00  9.0
      -13    1    1    2    0    0 -7.69061986360E+01 -4.49855270900E+02  6.55577570600E+02  7.98790517214E+02  1.05700000000E-01  0.0000E+00  9.0
</event>
<event>
 4    1   7.6478753E-02   1.0120000E+03  -1.0000000E+00   9.3970000E-02
        1   -1    0    0  500    0  0.00000000000E+00  0.00000000000E+00  1.12792848080E+03  1.12792848080E+03  0.00000000000E+00  0.0000E+00  9.0
       -1   -1    0    0    0  500  0.00000000000E+00  0.00000000000E+00 -2.27138921140E+02  2.27138921140E+02  0.00000000000E+00  0.0000E+00  9.0
       13    1    1    2    0    0 -2.45329836830E+02  2.93975597480E+02  8.93519494910E+02  9.72103636301E+02  1.05700000000E-01  0.0000E+00  9.0
      -13    1    1    2    0    0  2.45329836830E+02 -2.93975597480E+02  7.27006471290E+00  3.82963765605E+02  1.05700000000E-01  0.0000E+00  9.0
</event>
<event>
 4    1   7.6478753E-02   9.9990000E+02  -1.0000000E+00   9.4100000E-02
       -1   -1    0    0    0  500  0.00000000000E+00  0.00000000000E+00  1.35423089570E+03  1.35423089570E+03  0.00000000000E+00  0.0000E+00  9.0
        1   -1    0    0  500    0  0.00000000000E+00  0.00000000000E+00 -1.84583594340E+02  1.84583594340E+02  0.00000000000E+00  0.0000E+00  9.0
       13    1    1    2    0    0 -2.77484485320E+01 -2.35783641800E+01  1.35218757240E+03  1.35267777308E+03  1.05700000000E-01  0.0000E+00  9.0
      -13    1    1    2    0    0  2.77484485320E+01  2.35783641800E+01 -1.82540271080E+02  1.86136716936E+02  1.05700000000E-01  0.0000E+00  9.0
</event>
<event>
 4    1   7.6478753E-02   1.0080000E+03  -1.0000000E+00   9.4020000E-02
        2   -1    0    0  500    0  0.00000000000E+00  0.00000000000E+00  1.87313058580E+03  1.87313058580E+03  0.00000000000E+00  0.0000E+00  9.0
       -2   -1    0    0    0  500  0.00000000000E+00  0.00000000000E+00 -1.35506935230E+02  1.35506935230E+02  0.00000000000E+00  0.0000E+00  9.0
       13    1    1    2    0    0  4.12082624340E+01 -1.53964148450E+02  1.82154873050E+03  1.82850837260E+03  1.05700000000E-01  0.0000E+00  9.0
      -13    1    1    2    0    0 -4.12082624340E+01  1.53964148450E+02 -8.39250799280E+01  1.80129148430E+02  1.05700000000E-01  0.0000E+00  9.0
</event>
<event>
 4    1   7.6478753E-02   9.9990000E+02  -1.0000000E+00   9.4100000E-02
       -2   -1    0    0    0  500  0.00000000000E+00  0.00000000000E+00  5.31098281140E+02  5.31098281140E+02  0.00000000000E+00  0.0000E+00  9.0
        2   -1    0    0  500    0  0.00000000000E+00  0.00000000000E+00 -4.70615491140E+02  4.70615491140E+02  0.00000000000E+00  0.0000E+00  9.0
       13    1    1    2    0    0 -1.75332684760E+02 -1.43619262540E+02 -4.16190694510E+02  4.73901623005E+02  1.05700000000E-01  0.0000E+00  9.0
      -13    1    1    2    0    0  1.75332684760E+02  1.43619262540E+02  4.76673484520E+02  5.27812149287E+02  1.05700000000E-01  0.0000E+00  9.0
</event>
<event>
 4    1   7.6478753E-02   1.0010000E+03  -1.0000000E+00   9.4090000E-02
        1   -1    0    0  500    0  0.00000000000E+00  0.00000000000E+00  5.42431285780E+02  5.42431285780E+02  0.00000000000E+00  0.0000E+00  9.0
       -1   -1    0    0    0  500  0.00000000000E+00  0.00000000000E+00 -4.61368557000E+02  4.61368557000E+02  0.00000000000E+00  0.0000E+00  9.0
       13    1    1    2    0    0 -4.09421302910E+02  2.86777427100E+02  2.06261795280E+01  5.00292460892E+02  1.05700000000E-01  0.0000E+00  9.0
      -13    1    1    2    0    0  4.09421302910E+02 -2.86777427100E+02  6.04365492470E+01  5.03507381900E+02  1.05700000000E-01  0.0000E+00  9.0
</event>
<event>
 4    1   7.6478753E-02   9.9720000E+02  -1.0000000E+00   9.4130000E-02
       -1   -1    0    0    0  500  0.00000000000E+00  0.00000000000E+00  1.49585630690E+02  1.49585630690E+02  0.00000000000E+00  0.0000E+00  9.0
        1   -1    0    0  500    0  0.00000000000E+00  0.00000000000E+00 -1.66202671950E+03  1.66202671950E+03  0.00000000000E+00  0.0000E+00  9.0
       13    1    1    2    0    0  2.68280932480E+02 -1.06090212380E+02 -1.74321424690E+01  2.89021941483E+02  1.05700000000E-01  0.0000E+00  9.0
      -13    1    1    2    0    0 -2.68280932480E+02  1.06090212380E+02 -1.49500894640E+03  1.52259040877E+03  1.05700000000E-01  0.0000E+00  9.0
</event>
<event>
 4    1   7.6478753E-02   9.9920000E+02  -1.0000000E+00   9.4110000E-02
        1   -1    0    0  500    0  0.00000000000E+00  0.00000000000E+00  9.58651477040E+02  9.58651477040E+02  0.00000000000E+00  0.0000E+00  9.0
       -1   -1    0    0    0  500  0.00000000000E+00  0.00000000000E+00 -2.60363165290E+02  2.60363165290E+02  0.00000000000E+00  0.0000E+00  9.0
       13    1    1    2    0    0 -4.56829514540E+02  1.82356279140E+02  4.55853832290E+02  6.70633838605E+02  1.05700000000E-01  0.0000E+00  9.0
      -13    1    1    2    0    0  4.56829514540E+02 -1.82356279140E+02  2.42434479460E+02  5.48380803731E+02  1.05700000000E-01  0.0000E+00  9.0
</event>
<event>
 4    1   7.6478753E-02   1.0050000E+03  -1.0000000E+00   9.4050000E-02
        3   -1    0    0  500    0  0.00000000000E+00  0.00000000000E+00  8.48636287640E+02  8.48636311207E+02  2.00000000000E-01  0.0000E+00  9.0
       -3   -1    0    0    0  500  0.00000000000E+00  0.00000000000E+00 -2.97396869120E+02  2.97396936370E+02  2.00000000000E-01  0.0000E+00  9.0
       13    1    1    2    0    0  1.01781113260E+02  1.19468781090E+02 -2.68716246960E+02  3.11192251228E+02  1.05700000000E-01  0.0000E+00  9.0
      -13    1    1    2    0    0 -1.01781113260E+02 -1.19468781090E+02  8.19955665480E+02  8.34840996356E+02  1.05700000000E-01  0.0000E+00  9.0
</event>
<event>
 4    1   7.6478753E-02   1.0020000E+03  -1.0000000E+00   9.4080000E-02
        1   -1    0    0  500    0  0.00000000000E+00  0.00000000000E+00  2.81298559320E+03  2.81298559320E+03  0.00000000000E+00  0.0000E+00  9.0
       -1   -1    0    0    0  500  0.00000000000E+00  0.00000000000E+00 -8.91918382570E+01  8.91918382570E+01  0.00000000000E+00  0.0000E+00  9.0
       13    1    1    2    0    0  3.25978806910E+01  2.11404692680E+02  4.97765803880E+01  2.19618498857E+02  1.05700000000E-01  0.0000E+00  9.0
      -13    1    1    2    0    0 -3.25978806910E+01 -2.11404692680E+02  2.67401717450E+03  2.68255893255E+03  1.05700000000E-01  0.0000E+00  9.0
</event>
<event>
 4    1   7.6478753E-02   1.0000000E+03  -1.0000000E+00   9.4100000E-02
        1   -1    0    0  500    0  0.00000000000E+00  0.00000000000E+00  1.74922455580E+03  1.74922455580E+03  0.00000000000E+00  0.0000E+00  9.0
       -1   -1    0    0    0  500  0.00000000000E+00  0.00000000000E+00 -1.42930735070E+02  1.42930735070E+02  0.00000000000E+00  0.0000E+00  9.0
       13    1    1    2    0    0 -1.10902469820E+02  2.66192524040E+02  3.02573097320E+01  2.89954019858E+02  1.05700000000E-01  0.0000E+00  9.0
      -13    1    1    2    0    0  1.10902469820E+02 -2.66192524040E+02  1.57603651100E+03  1.60220127102E+03  1.05700000000E-01  0.0000E+00  9.0
</event>
<event>
 4    1   7.6478753E-02   9.9780000E+02  -1.0000000E+00   9.4120000E-02
        2   -1    0    0  500    0  0.00000000000E+00  0.00000000000E+00  1.95813839410E+03  1.95813839410E+03  0.00000000000E+00  0.0000E+00  9.0
       -2   -1    0    0    0  500  0.00000000000E+00  0.00000000000E+00 -1.27114418610E+02  1.27114418610E+02  0.00000000000E+00  0.0000E+00  9.0
       13    1    1    2    0    0 -3.75858875000E+02 -2.38003553610E+02  1.38742370260E+03  1.45700381851E+03  1.05700000000E-01  0.0000E+00  9.0
      -13    1    1    2    0    0  3.75858875000E+02  2.38003553610E+02  4.43600272890E+02  6.28248994212E+02  1.05700000000E-01  0.0000E+00  9.0
</event>
<event>
 4    1   7.6478753E-02   9.9970000E+02  -1.0000000E+00   9.4100000E-02
        1   -1    0    0  500    0  0.00000000000E+00  0.00000000000E+00  1.91819069480E+02  1.91819069480E+02  0.00000000000E+00  0.0000E+00  9.0
       -1   -1    0    0    0  500  0.00000000000E+00  0.00000000000E+00 -1.30259755950E+03  1.30259755950E+03  0.00000000000E+00  0.0000E+00  9.0
       13    1    1    2    0    0 -3.84241121310E+02 -3.17064457680E+02 -4.93902430330E+02  7.01506045225E+02  1.05700000000E-01  0.0000E+00  9.0
      -13    1    1    2    0    0  3.84241121310E+02  3.17064457680E+02 -6.16876059680E+02  7.92910583741E+02  1.05700000000E-01  0.0000E+00  9.0
</event>
<event>
 4    1   7.6478753E-02   1.0020000E+03  -1.0000000E+00   9.4080000E-02
       -1   -1    0    0    0  500  0.00000000000E+00  0.00000000000E+00  2.09134530010E+02  2.09134530010E+02  0.00000000000E+00  0.0000E+00  9.0
        1   -1    0    0  500    0  0.00000000000E+00  0.00000000000E+00 -1.19933856010E+03  1.19933856010E+03  0.00000000000E+00  0.0000E+00  9.0
       13    1    1    2    0    0 -3.12355469430E+02 -2.98678417800E+02 -1.39234136960E+02  4.54049438508E+02  1.05700000000E-01  0.0000E+00  9.0
      -13    1    1    2    0    0  3.12355469430E+02  2.98678417800E+02 -8.50969893110E+02  9.54423651580E+02  1.05700000000E-01  0.0000E+00  9.0
</event>
<event>
 4    1   7.6478753E-02   9.9470000E+02  -1.0000000E+00   9.4150000E-02
       -3   -1    0    0    0  500  0.00000000000E+00  0.00000000000E+00  1.05883950310E+03  1.05883952199E+03  2.00000000000E-01  0.0000E+00  9.0
        3   -1    0    0  500    0  0.00000000000E+00  0.00000000000E+00 -2.33628021800E+02  2.33628107406E+02  2.00000000000E-01  0.0000E+00  9.0
       13    1    1    2    0    0 -2.84795763890E+02  1.75821576930E+02  8.90625311410E+02  9.51438547958E+02  1.05700000000E-01  0.0000E+00  9.0
      -13    1    1    2    0    0  2.84795763890E+02 -1.75821576930E+02 -6.54138301040E+01  3.41029081436E+02  1.05700000000E-01  0.0000E+00  9.0
</event>
<event>
 4    1   7.6478753E-02   1.0020000E+03  -1.0000000E+00   9.4070000E-02
       -1   -1    0    0    0  500  0.00000000000E+00  0.00000000000E+00  1.75298966840E+02  1.75298966840E+02  0.00000000000E+00  0.0000E+00  9.0
        1   -1    0    0  500    0  0.00000000000E+00  0.00000000000E+00 -1.43247775530E+03  1.43247775530E+03  0.00000000000E+00  0.0000E+00  9.0
       13    1    1    2    0    0 -2.92520478310E+02 -3.95986997460E+02 -7.78546249540E+02  9.21145051679E+02  1.05700000000E-01  0.0000E+00  9.0
      -13    1    1    2    0    0  2.92520478310E+02  3.95986997460E+02 -4.78632538940E+02  6.86631670470E+02  1.05700000000E-01  0.0000E+00  9.0
</event>
<event>
 4    1   7.6478753E-02   1.0020000E+03  -1.0000000E+00   9.4070000E-02
        2   -1    0    0  500    0  0.00000000000E+00  0.00000000000E+00  8.74318736840E+02  8.74318736840E+02  0.00000000000E+00  0.0000E+00  9.0
       -2   -1    0    0    0  500  0.00000000000E+00  0.00000000000E+00 -2.87242027130E+02  2.87242027130E+02  0.00000000000E+00  0.0000E+00  9.0
       13    1    1    2    0    0  3.95819477870E+02  9.73609765810E+01  6.31396229980E+02  7.51540703640E+02  1.05700000000E-01  0.0000E+00  9.0
      -13    1    1    2    0    0 -3.95819477870E+02 -9.73609765810E+01 -4.43195202710E+01  4.10020060328E+02  1.05700000000E-01  0.0000E+00  9.0
</event>
<event>
 4    1   7.6478753E-02   1.0020000E+03  -1.0000000E+00   9.4080000E-02
       -2   -1    0    0    0  500  0.00000000000E+00  0.00000000000E+00  8.59582725260E+01  8.59582725260E+01  0.00000000000E+00  0.0000E+00  9.0
        2   -1    0    0  500    0  0.00000000000E+00  0.00000000000E+00 -2.91782741610E+03  2.91782741610E+03  0.00000000000E+00  0.0000E+00  9.0
       13    1    1    2    0    0 -4.61639723160E+02 -1.55414477200E+02 -1.76497750370E+03  1.83095889999E+03  1.05700000000E-01  0.0000E+00  9.0
      -13    1    1    2    0    0  4.61639723160E+02  1.55414477200E+02 -1.06689163990E+03  1.17282678865E+03  1.05700000000E-01  0.0000E+00  9.0
</event>
<event>
 4    1   7.6478753E-02   9.6360000E+02  -1.0000000E+00   9.4500000E-02
        1   -1    0    0  500    0  0.00000000000E+00  0.00000000000E+00  1.70541140410E+03  1.70541140410E+03  0.00000000000E+00  0.0000E+00  9.0
       -1   -1    0    0    0  500  0.00000000000E+00  0.00000000000E+00 -1.36110072930E+02  1.36110072930E+02  0.00000000000E+00  0.0000E+00  9.0
       13    1    1    2    0    0  2.70497080560E+01  2.05067562970E+02 -4.69358221340E+01  2.12102274057E+02  1.05700000000E-01  0.0000E+00  9.0
      -13    1    1    2    0    0 -2.70497080560E+01 -2.05067562970E+02  1.61623715330E+03  1.62941920296E+03  1.05700000000E-01  0.0000E+00  9.0
</event>
<event>
 4    1   7.6478753E-02   9.9720000E+02  -1.0000000E+00   9.4130000E-02
       -1   -1    0    0    0  500  0.00000000000E+00  0.00000000000E+00  1.09897878790E+03  1.09897878790E+03  0.00000000000E+00  0.0000E+00  9.0
        1   -1    0    0  500    0  0.00000000000E+00  0.00000000000E+00 -2.26211076280E+02  2.26211076280E+02  0.00000000000E+00  0.0000E+00  9.0
       13    1    1    2    0    0  4.43198785860E+02  1.65199970480E+02  6.46019475010E+02  8.00660581832E+02  1.05700000000E-01  0.0000E+00  9.0
      -13    1    1    2    0    0 -4.43198785860E+02 -1.65199970480E+02  2.26748236580E+02  5.24529282308E+02  1.05700000000E-01  0.0000E+00  9.0
</event>
<event>
 4    1   7.6478753E-02   1.0020000E+03  -1.0000000E+00   9.4070000E-02
       -2   -1    0    0    0  500  0.00000000000E+00  0.00000000000E+00  2.55451840560E+02  2.55451840560E+02  0.00000000000E+00  0.0000E+00  9.0
        2   -1    0    0  500    0  0.00000000000E+00  0.00000000000E+00 -9.82806893680E+02  9.82806893680E+02  0.00000000000E+00  0.0000E+00  9.0
       13    1    1    2    0    0 -5.08199361800E+01  3.02624753240E+02  1.25760727690E+02  3.31632596390E+02  1.05700000000E-01  0.0000E+00  9.0
      -13    1    1    2    0    0  5.08199361800E+01 -3.02624753240E+02 -8.53115780810E+02  9.06626137846E+02  1.05700000000E-01  0.0000E+00  9.0
</event>
<event>
 4    1   7.5922996E-02   9.7660000E+02  -1.0000000E+00   9.4350000E-02
       -5   -1    0    0    0  500  0.00000000000E+00  0.00000000000E+00  3.39011145050E+02  3.39038414443E+02  4.30000000000E+00  0.0000E+00  9.0
        5   -1    0    0  500    0  0.00000000000E+00  0.00000000000E+00 -7.03338434600E+02  7.03351578932E+02  4.30000000000E+00  0.0000E+00  9.0
       13    1    1    2    0    0 -3.27814430590E+02 -3.29842979790E+02 -2.31306506220E+01  4.65611136455E+02  1.05700000000E-01  0.0000E+00  9.0
      -13    1    1    2    0    0  3.27814430590E+02  3.29842979790E+02 -3.41196638930E+02  5.76778856937E+02  1.05700000000E-01  0.0000E+00  9.0
</event>
<event>
 4    1   7.6478753E-02   1.0000000E+03  -1.0000000E+00   9.4100000E-02
       -4   -1    0    0    0  500  0.00000000000E+00  0.00000000000E+00  3.63511206660E+02  3.63513531203E+02  1.30000000000E+00  0.0000E+00  9.0
        4   -1    0    0  500    0  0.00000000000E+00  0.00000000000E+00 -6.87733073010E+02  6.87734301683E+02  1.30000000000E+00  0.0000E+00  9.0
       13    1    1    2    0    0 -1.77187291590E+02 -4.36254092610E+02 -3.38919143970E+02  5.80154433700E+02  1.05700000000E-01  0.0000E+00  9.0
      -13    1    1    2    0    0  1.77187291590E+02  4.36254092610E+02  1.46972776220E+01  4.71093399192E+02  1.05700000000E-01  0.0000E+00  9.0
</event>
<event>
 4    1   7.6478753E-02   1.0120000E+03  -1.0000000E+00   9.3970000E-02
        1   -1    0    0  500    0  0.00000000000E+00  0.00000000000E+00  9.29959545030E+02  9.29959545030E+02  0.00000000000E+00  0.0000E+00  9.0
       -1   -1    0    0    0  500  0.00000000000E+00  0.00000000000E+00 -2.75288083370E+02  2.75288083370E+02  0.00000000000E+00  0.0000E+00  9.0
       13    1    1    2    0    0  3.27650911280E+01  1.42477197190E+02 -2.49584188780E+02  2.89250032631E+02  1.05700000000E-01  0.0000E+00  9.0
      -13    1    1    2    0    0 -3.27650911280E+01 -1.42477197190E+02  9.04255650440E+02  9.15997595762E+02  1.05700000000E-01  0.0000E+00  9.0
</event>
<event>
 4    1   7.6478753E-02   9.9760000E+02  -1.0000000E+00   9.4120000E-02
        2   -1    0    0  500    0  0.00000000000E+00  0.00000000000E+00  8.67144120590E+02  8.67144120590E+02  0.00000000000E+00  0.0000E+00  9.0
       -2   -1    0    0    0  500  0.00000000000E+00  0.00000000000E+00 -2.86902376740E+02  2.86902376740E+02  0.00000000000E+00  0.0000E+00  9.0
       13    1    1    2    0    0  2.60018173980E+02  2.87262890080E+02  6.53485762910E+02  7.59719074603E+02  1.05700000000E-01  0.0000E+00  9.0
      -13    1    1    2    0    0 -2.60018173980E+02 -2.87262890080E+02 -7.32440190490E+01  3.94327422729E+02  1.05700000000E-01  0.0000E+00  9.0
</event>
<event>
 4    1   7.6478753E-02   9.8860000E+02  -1.0000000E+00   9.4220000E-02
        2   -1    0    0  500    0  0.00000000000E+00  0.00000000000E+00  4.73357170600E+02  4.73357170600E+02  0.00000000000E+00  0.0000E+00  9.0
       -2   -1    0    0    0  500  0.00000000000E+00  0.00000000000E+00 -5.16200956620E+02  5.16200956620E+02  0.00000000000E+00  0.0000E+00  9.0
       13    1    1    2    0    0  9.49043771700E+01 -3.39686271150E+02  3.25246665060E+02  4.79769744689E+02  1.05700000000E-01  0.0000E+00  9.0
      -13    1    1    2    0    0 -9.49043771700E+01  3.39686271150E+02 -3.68090451080E+02  5.09788382530E+02  1.05700000000E-01  0.0000E+00  9.0
</event>
<event>
 4    1   7.6478753E-02   9.9660000E+02  -1.0000000E+00   9.4130000E-02
        1   -1    0    0  500    0  0.00000000000E+00  0.00000000000E+00  1.09865752640E+03  1.09865752640E+03  0.00000000000E+00  0.0000E+00  9.0
       -1   -1    0    0    0  500  0.00000000000E+00  0.00000000000E+00 -2.25985258700E+02  2.25985258700E+02  0.00000000000E+00  0.0000E+00  9.0
       13    1    1    2    0    0 -2.00662367780E+02  1.54012485900E+02 -1.34293770780E+02  2.86391444877E+02  1.05700000000E-01  0.0000E+00  9.0
      -13    1    1    2    0    0  2.00662367780E+02 -1.54012485900E+02  1.00696603850E+03  1.03825134025E+03  1.05700000000E-01  0.0000E+00  9.0
</event>
<event>
 4    1   7.6478753E-02   1.0040000E+03  -1.0000000E+00   9.4050000E-02
       -3   -1    0    0    0  500  0.00000000000E+00  0.00000000000E+00  1.04872561670E+03  1.04872563577E+03  2.00000000000E-01  0.0000E+00  9.0
        3   -1    0    0  500    0  0.00000000000E+00  0.00000000000E+00 -2.40478609290E+02  2.40478692457E+02  2.00000000000E-01  0.0000E+00  9.0
       13    1    1    2    0    0 -9.17015849760E+01 -2.00640937090E+02  9.83201325410E+02  1.00764617986E+03  1.05700000000E-01  0.0000E+00  9.0
      -13    1    1    2    0    0  9.17015849760E+01  2.00640937090E+02 -1.74954318040E+02  2.81558148340E+02  1.05700000000E-01  0.0000E+00  9.0
</event>
<event>
 4    1   7.6478753E-02   9.9760000E+02  -1.0000000E+00   9.4120000E-02
       -1   -1    0    0    0  500  0.00000000000E+00  0.00000000000E+00  5.08136034470E+02  5.08136034470E+02  0.00000000000E+00  0.0000E+00  9.0
        1   -1    0    0  500    0  0.00000000000E+00  0.00000000000E+00 -4.89595769630E+02  4.89595769630E+02  0.00000000000E+00  0.0000E+00  9.0
       13    1    1    2    0    0  4.30903676470E+02 -2.10505254830E+02  1.46373348330E+02  5.01413610685E+02  1.05700000000E-01  0.0000E+00  9.0
      -13    1    1    2    0    0 -4.30903676470E+02  2.10505254830E+02 -1.27833083480E+02  4.96318193411E+02  1.05700000000E-01  0.0000E+00  9.0
</event>
<event>
 4    1   7.6478753E-02   9.8230000E+02  -1.0000000E+00   9.4290000E-02
        2   -1    0    0  500    0  0.00000000000E+00  0.00000000000E+00  1.67709982460E+03  1.67709982460E+03  0.00000000000E+00  0.0000E+00  9.0
       -2   -1    0    0    0  500  0.00000000000E+00  0.00000000000E+00 -1.43846663660E+02  1.43846663660E+02  0.00000000000E+00  0.0000E+00  9.0
       13    1    1    2    0    0  3.24787144780E+02 -3.46914520390E+02  5.36523381200E+02  7.16724300982E+02  1.05700000000E-01  0.0000E+00  9.0
      -13    1    1    2    0    0 -3.24787144780E+02  3.46914520390E+02  9.96729779720E+02  1.10422218725E+03  1.05700000000E-01  0.0000E+00  9.0
</event>
<event>
 4    1   7.6478753E-02   9.9930000E+02  -1.0000000E+00   9.4100000E-02
        1   -1    0    0  500    0  0.00000000000E+00  0.00000000000E+00  2.65056117090E+02  2.65056117090E+02  0.00000000000E+00  0.0000E+00  9.0
       -1   -1    0    0    0  500  0.00000000000E+00  0.00000000000E+00 -9.41969406280E+02  9.41969406280E+02  0.00000000000E+00  0.0000E+00  9.0
       13    1    1    2    0    0  3.98052313640E+02  4.02668817320E+01 -7.00009461950E+02  8.06275588214E+02  1.05700000000E-01  0.0000E+00  9.0
      -13    1    1    2    0    0 -3.98052313640E+02 -4.02668817320E+01  2.30961727600E+01  4.00749935156E+02  1.05700000000E-01  0.0000E+00  9.0
</event>
<event>
 4    1   7.6478753E-02   1.0020000E+03  -1.0000000E+00   9.4080000E-02
        2   -1    0    0  500    0  0.00000000000E+00  0.00000000000E+00  2.79649692390E+03  2.79649692390E+03  0.00000000000E+00  0.0000E+00  9.0
       -2   -1    0    0    0  500  0.00000000000E+00  0.00000000000E+00 -8.96670329370E+01  8.96670329370E+01  0.00000000000E+00  0.0000E+00  9.0
       13    1    1    2    0    0  2.34257846960E+02  1.26078122910E+02  2.57600519560E+03  2.58970562243E+03  1.05700000000E-01  0.0000E+00  9.0
      -13    1    1    2    0    0 -2.34257846960E+02 -1.26078122910E+02  1.30824695340E+02  2.96458334378E+02  1.05700000000E-01  0.0000E+00  9.0
</event>
<event>
 4    1   7.6478753E-02   1.0100000E+03  -1.0000000E+00   9.3990000E-02
       -2   -1    0    0    0  500  0.00000000000E+00  0.00000000000E+00  2.07957387010E+02  2.07957387010E+02  0.00000000000E+00  0.0000E+00  9.0
        2   -1    0    0  500    0  0.00000000000E+00  0.00000000000E+00 -1.22709162340E+03  1.22709162340E+03  0.00000000000E+00  0.0000E+00  9.0
       13    1    1    2    0    0  2.62290491440E+01 -5.37764043570E+01 -1.22204088840E+03  1.22350472364E+03  1.05700000000E-01  0.0000E+00  9.0
      -13    1    1    2    0    0 -2.62290491440E+01  5.37764043570E+01  2.02906651980E+02  2.11544286793E+02  1.05700000000E-01  0.0000E+00  9.0
</event>
<event>
 4    1   7.6478753E-02   1.0050000E+03  -1.0000000E+00   9.4050000E-02
       -1   -1    0    0    0  500  0.00000000000E+00  0.00000000000E+00  2.70812910650E+02  2.70812910650E+02  0.00000000000E+00  0.0000E+00  9.0
        1   -1    0    0  500    0  0.00000000000E+00  0.00000000000E+00 -9.31908253490E+02  9.31908253490E+02  0.00000000000E+00  0.0000E+00  9.0
       13    1    1    2    0    0  1.70039492210E+02  2.68926940070E+02 -7.95919430740E+02  8.57159774726E+02  1.05700000000E-01  0.0000E+00  9.0
      -13    1    1    2    0    0 -1.70039492210E+02 -2.68926940070E+02  1.34824087900E+02  3.45561389419E+02  1.05700000000E-01  0.0000E+00  9.0
</event>
<event>
 4    1   7.6478753E-02   9.9540000E+02  -1.0000000E+00   9.4150000E-02
       -1   -1    0    0    0  500  0.00000000000E+00  0.00000000000E+00  3.17232985110E+02  3.17232985110E+02  0.00000000000E+00  0.0000E+00  9.0
        1   -1    0    0  500    0  0.00000000000E+00  0.00000000000E+00 -7.80886331990E+02  7.80886331990E+02  0.00000000000E+00  0.0000E+00  9.0
       13    1    1    2    0    0 -1.47442820600E+01  3.63238639910E+02  1.43186230960E+02  3.90719862928E+02  1.05700000000E-01  0.0000E+00  9.0
      -13    1    1    2    0    0  1.47442820600E+01 -3.63238639910E+02 -6.06839577830E+02  7.07399454177E+02  1.05700000000E-01  0.0000E+00  9.0
</event>
<event>
 4    1   7.6478753E-02   1.0030000E+03  -1.0000000E+00   9.4070000E-02
       -1   -1    0    0    0  500  0.00000000000E+00  0.00000000000E+00  1.43345582640E+02  1.43345582640E+02  0.00000000000E+00  0.0000E+00  9.0
        1   -1    0    0  500    0  0.00000000000E+00  0.00000000000E+00 -1.75330224570E+03  1.75330224570E+03  0.00000000000E+00  0.0000E+00  9.0
       13    1    1    2    0    0  1.43778932060E+02  1.06683710330E+02 -1.69076684160E+03  1.70021949147E+03  1.05700000000E-01  0.0000E+00  9.0
      -13    1    1    2    0    0 -1.43778932060E+02 -1.06683710330E+02  8.08101786190E+01  1.96428336792E+02  1.05700000000E-01  0.0000E+00  9.0
</event>
<event>
 4    1   7.6478753E-02   1.0020000E+03  -1.0000000E+00   9.4070000E-02
       -2   -1    0    0    0  500  0.00000000000E+00  0.00000000000E+00  1.05954908390E+03  1.05954908390E+03  0.00000000000E+00  0.0000E+00  9.0
        2   -1    0    0  500    0  0.00000000000E+00  0.00000000000E+00 -2.37129806110E+02  2.37129806110E+02  0.00000000000E+00  0.0000E+00  9.0
       13    1    1    2    0    0  3.16261412900E+02 -2.46610340460E+02  2.22866718430E+01  4.01664845643E+02  1.05700000000E-01  0.0000E+00  9.0
      -13    1    1    2    0    0 -3.16261412900E+02  2.46610340460E+02  8.00132605920E+02  8.95014044326E+02  1.05700000000E-01  0.0000E+00  9.0
</event>
<event>
 4    1   7.6478753E-02   1.0040000E+03  -1.0000000E+00   9.4060000E-02
       -2   -1    0    0    0  500  0.00000000000E+00  0.00000000000E+00  7.68987216810E+01  7.68987216810E+01  0.00000000000E+00  0.0000E+00  9.0
        2   -1    0    0  500    0  0.00000000000E+00  0.00000000000E+00 -3.27553305680E+03  3.27553305680E+03  0.00000000000E+00  0.0000E+00  9.0
       13    1    1    2    0    0 -4.21721041990E+02  3.97494966120E+01 -2.49832914950E+03  2.53398445342E+03  1.05700000000E-01  0.0000E+00  9.0
      -13    1    1    2    0    0  4.21721041990E+02 -3.97494966120E+01 -7.00305185650E+02  8.18447325097E+02  1.05700000000E-01  0.0000E+00  9.0
</event>
<event>
 4    1   7.6478753E-02   1.0000000E+03  -1.0000000E+00   9.4100000E-02
       -1   -1    0    0    0  500  0.00000000000E+00  0.00000000000E+00  2.93999547610E+02  2.93999547610E+02  0.00000000000E+00  0.0000E+00  9.0
        1   -1    0    0  500    0  0.00000000000E+00  0.00000000000E+00 -8.50540622340E+02  8.50540622340E+02  0.00000000000E+00  0.0000E+00  9.0
       13    1    1    2    0    0  2.26799973800E+02 -3.39037124150E+02 -6.09306998370E+02  7.33238998624E+02  1.05700000000E-01  0.0000E+00  9.0
      -13    1    1    2    0    0 -2.26799973800E+02  3.39037124150E+02  5.27659236280E+01  4.11301171329E+02  1.05700000000E-01  0.0000E+00  9.0
</event>
<event>
 4    1   7.6478753E-02   9.9660000E+02  -1.0000000E+00   9.4130000E-02
        1   -1    0    0  500    0  0.00000000000E+00  0.00000000000E+00  1.43956021400E+03  1.43956021400E+03  0.00000000000E+00  0.0000E+00  9.0
       -1   -1    0    0    0  500  0.00000000000E+00  0.00000000000E+00 -1.72480879970E+02  1.72480879970E+02  0.00000000000E+00  0.0000E+00  9.0
       13    1    1    2    0    0  9.82558587500E+01 -2.32074183400E+02  1.32887268400E+03  1.35255878313E+03  1.05700000000E-01  0.0000E+00  9.0
      -13    1    1    2    0    0 -9.82558587500E+01  2.32074183400E+02 -6.17933499400E+01  2.59482310859E+02  1.05700000000E-01  0.0000E+00  9.0
</event>
<event>
 4    1   7.6478753E-02   9.9800000E+02  -1.0000000E+00   9.4120000E-02
       -1   -1    0    0    0  500  0.00000000000E+00  0.00000000000E+00  1.10604018240E+03  1.10604018240E+03  0.00000000000E+00  0.0000E+00  9.0
        1   -1    0    0  500    0  0.00000000000E+00  0.00000000000E+00 -2.25112980870E+02  2.25112980870E+02  0.00000000000E+00  0.0000E+00  9.0
       13    1    1    2    0    0 -3.48471778340E+02  1.43537700520E+02  8.76677333570E+02  9.54253011595E+02  1.05700000000E-01  0.0000E+00  9.0
      -13    1    1    2    0    0  3.48471778340E+02 -1.43537700520E+02  4.24986794660E+00  3.76900151658E+02  1.05700000000E-01  0.0000E+00  9.0
</event>
<event>
 4    1   7.6478753E-02   1.0860000E+03  -1.0000000E+00   9.3210000E-02
        2   -1    0    0  500    0  0.00000000000E+00  0.00000000000E+00  3.03252781340E+02  3.03252781340E+02  0.00000000000E+00  0.0000E+00  9.0
       -2   -1    0    0    0  500  0.00000000000E+00  0.00000000000E+00 -9.73109230470E+02  9.73109230470E+02  0.00000000000E+00  0.0000E+00  9.0
       13    1    1    2    0    0 -4.66141530140E+00  3.48215290720E+02  1.54865952600E+02  3.81128707828E+02  1.05700000000E-01  0.0000E+00  9.0
      -13    1    1    2    0    0  4.66141530140E+00 -3.48215290720E+02 -8.24722401730E+02  8.95233303989E+02  1.05700000000E-01  0.0000E+00  9.0
</event>
<event>
 4    1   7.6478753E-02   1.0520000E+03  -1.0000000E+00   9.3550000E-02
        2   -1    0    0  500    0  0.00000000000E+00  0.00000000000E+00  1.15847430390E+03  1.15847430390E+03  0.00000000000E+00  0.0000E+00  9.0
       -2   -1    0    0    0  500  0.00000000000E+00  0.00000000000E+00 -2.38877270410E+02  2.38877270410E+02  0.00000000000E+00  0.0000E+00  9.0
       13    1    1    2    0    0  1.15766436820E+02  4.59515673050E+02  1.56421163160E+02  4.99023158911E+02  1.05700000000E-01  0.0000E+00  9.0
      -13    1    1    2    0    0 -1.15766436820E+02 -4.59515673050E+02  7.63175870300E+02  8.98328415366E+02  1.05700000000E-01  0.0000E+00  9.0
</event>
<event>
 4    1   7.6478753E-02   9.9870000E+02  -1.0000000E+00   9.4110000E-02
        1   -1    0    0  500    0  0.00000000000E+00  0.00000000000E+00  9.60251404460E+02  9.60251404460E+02  0.00000000000E+00  0.0000E+00  9.0
       -1   -1    0    0    0  500  0.00000000000E+00  0.00000000000E+00 -2.59678170810E+02  2.59678170810E+02  0.00000000000E+00  0.0000E+00  9.0
       13    1    1    2    0    0 -2.48401287510E+02 -3.18527515740E+01 -1.77423242090E+02  3.06914997069E+02  1.05700000000E-01  0.0000E+00  9.0
      -13    1    1    2    0    0  2.48401287510E+02  3.18527515740E+01  8.77996475740E+02  9.13014578199E+02  1.05700000000E-01  0.0000E+00  9.0
</event>
<event>
 4    1   7.6478753E-02   9.9990000E+02  -1.0000000E+00   9.4100000E-02
       -1   -1    0    0    0  500  0.00000000000E+00  0.00000000000E+00  3.27832363610E+02  3.27832363610E+02  0.00000000000E+00  0.0000E+00  9.0
        1   -1    0    0  500    0  0.00000000000E+00  0.00000000000E+00 -7.62471873290E+02  7.62471873290E+02  0.00000000000E+00  0.0000E+00  9.0
       13    1    1    2    0    0 -4.54360422120E+02  8.44146737420E+00  9.96287215570E+00  4.54548040975E+02  1.05700000000E-01  0.0000E+00  9.0
      -13    1    1    2    0    0  4.54360422120E+02 -8.44146737420E+00 -4.44602381830E+02  6.35756195929E+02  1.05700000000E-01  0.0000E+00  9.0
</event>
<event>
 4    1   7.6478753E-02   1.0050000E+03  -1.0000000E+00   9.4050000E-02
       -1   -1    0    0    0  500  0.00000000000E+00  0.00000000000E+00  2.50591474130E+02  2.50591474130E+02  0.00000000000E+00  0.0000E+00  9.0
        1   -1    0    0  500    0  0.00000000000E+00  0.00000000000E+00 -1.00678391510E+03  1.00678391510E+03  0.00000000000E+00  0.0000E+00  9.0
       13    1    1    2    0    0 -4.72554359020E+02 -1.42063188550E+02 -2.60668274850E+02  5.58065885407E+02  1.05700000000E-01  0.0000E+00  9.0
      -13    1    1    2    0    0  4.72554359020E+02  1.42063188550E+02 -4.95524166140E+02  6.99309503847E+02  1.05700000000E-01  0.0000E+00  9.0
</event>
<event>
 4    1   7.6478753E-02   1.0010000E+03  -1.0000000E+00   9.4080000E-02
       -1   -1    0    0    0  500  0.00000000000E+00  0.00000000000E+00  1.35074361260E+03  1.35074361260E+03  0.00000000000E+00  0.0000E+00  9.0
        1   -1    0    0  500    0  0.00000000000E+00  0.00000000000E+00 -1.85522244580E+02  1.85522244580E+02  0.00000000000E+00  0.0000E+00  9.0
       13    1    1    2    0    0 -9.28701311780E+01 -4.86805878010E+02  6.90983846380E+02  8.50331412604E+02  1.05700000000E-01  0.0000E+00  9.0
      -13    1    1    2    0    0  9.28701311780E+01  4.86805878010E+02  4.74237521600E+02  6.85934444532E+02  1.05700000000E-01  0.0000E+00  9.0
</event>
<event>
 4    1   7.6478753E-02   1.0010000E+03  -1.0000000E+00   9.4090000E-02
        2   -1    0    0  500    0  0.00000000000E+00  0.00000000000E+00  9.26612117130E+02  9.26612117130E+02  0.00000000000E+00  0.0000E+00  9.0
       -2   -1    0    0    0  500  0.00000000000E+00  0.00000000000E+00 -2.70081118470E+02  2.70081118470E+02  0.00000000000E+00  0.0000E+00  9.0
       13    1    1    2    0    0  4.71991434810E+02 -2.77481344150E+01  1.32772733280E+02  4.91095187690E+02  1.05700000000E-01  0.0000E+00  9.0
      -13    1    1    2    0    0 -4.71991434810E+02  2.77481344150E+01  5.23758265370E+02  7.05598047909E+02  1.05700000000E-01  0.0000E+00  9.0
</event>
<event>
 4    1   7.6478753E-02   1.0010000E+03  -1.0000000E+00   9.4080000E-02
        1   -1    0    0  500    0  0.00000000000E+00  0.00000000000E+00  1.72881936350E+03  1.72881936350E+03  0.00000000000E+00  0.0000E+00  9.0
       -1   -1    0    0    0  500  0.00000000000E+00  0.00000000000E+00 -1.44994603960E+02  1.44994603960E+02  0.00000000000E+00  0.0000E+00  9.0
       13    1    1    2    0    0 -2.69595886440E+02  4.07382762190E+00  1.58135447720E+03  1.60417596659E+03  1.05700000000E-01  0.0000E+00  9.0
      -13    1    1    2    0    0  2.69595886440E+02 -4.07382762190E+00  2.47028235330E+00  2.69638000891E+02  1.05700000000E-01  0.0000E+00  9.0
</event>
<event>
 4    1   7.6478753E-02   1.0010000E+03  -1.0000000E+00   9.4080000E-02
       -2   -1    0    0    0  500  0.00000000000E+00  0.00000000000E+00  4.93954323070E+02  4.93954323070E+02  0.00000000000E+00  0.0000E+00  9.0
        2   -1    0    0  500    0  0.00000000000E+00  0.00000000000E+00 -5.07332694430E+02  5.07332694430E+02  0.00000000000E+00  0.0000E+00  9.0
       13    1    1    2    0    0  3.49976966520E+02  9.27317375500E+01  3.39052703850E+02  4.96023990755E+02  1.05700000000E-01  0.0000E+00  9.0
      -13    1    1    2    0    0 -3.49976966520E+02 -9.27317375500E+01 -3.52431075210E+02  5.05263026739E+02  1.05700000000E-01  0.0000E+00  9.0
</event>
<event>
 4    1   7.6478753E-02   1.0080000E+03  -1.0000000E+00   9.4010000E-02
        1   -1    0    0  500    0  0.00000000000E+00  0.00000000000E+00  1.00708323120E+03  1.00708323120E+03  0.00000000000E+00  0.0000E+00  9.0
       -1   -1    0    0    0  500  0.00000000000E+00  0.00000000000E+00 -2.52286961350E+02  2.52286961350E+02  0.00000000000E+00  0.0000E+00  9.0
       13    1    1    2    0    0 -1.49447205380E+02  4.81375385430E+02  3.82583303430E+02  6.32792797154E+02  1.05700000000E-01  0.0000E+00  9.0
      -13    1    1    2    0    0  1.49447205380E+02 -4.81375385430E+02  3.72212966450E+02  6.26577395427E+02  1.05700000000E-01  0.0000E+00  9.0
</event>
<event>
 4    1   7.6478753E-02   9.9300000E+02  -1.0000000E+00   9.4170000E-02
       -1   -1    0    0    0  500  0.00000000000E+00  0.00000000000E+00  1.53552850270E+02  1.53552850270E+02  0.00000000000E+00  0.0000E+00  9.0
        1   -1    0    0  500    0  0.00000000000E+00  0.00000000000E+00 -1.60539182950E+03  1.60539182950E+03  0.00000000000E+00  0.0000E+00  9.0
       13    1    1    2    0    0  2.29055267740E+02  1.37133010210E+02 -1.46743495240E+03  1.49152174938E+03  1.05700000000E-01  0.0000E+00  9.0
      -13    1    1    2    0    0 -2.29055267740E+02 -1.37133010210E+02  1.55959731320E+01  2.67422930429E+02  1.05700000000E-01  0.0000E+00  9.0
</event>
<event>
 4    1   7.6478753E-02   9.9280000E+02  -1.0000000E+00   9.4180000E-02
       -1   -1    0    0    0  500  0.00000000000E+00  0.00000000000E+00  1.12542869970E+02  1.12542869970E+02  0.00000000000E+00  0.0000E+00  9.0
        1   -1    0    0  500    0  0.00000000000E+00  0.00000000000E+00 -2.18945030150E+03  2.18945030150E+03  0.00000000000E+00  0.0000E+00  9.0
       13    1    1    2    0    0  9.04887466320E+01 -1.52305837590E+02 -2.11365226670E+03  2.12106369474E+03  1.05700000000E-01  0.0000E+00  9.0
      -13    1    1    2    0    0 -9.04887466320E+01  1.52305837590E+02  3.67448352450E+01  1.80929476650E+02  1.05700000000E-01  0.0000E+00  9.0
</event>
<event>
 4    1   7.6478753E-02   9.9130000E+02  -1.0000000E+00   9.4190000E-02
       -2   -1    0    0    0  500  0.00000000000E+00  0.00000000000E+00  2.70748427210E+02  2.70748427210E+02  0.00000000000E+00  0.0000E+00  9.0
        2   -1    0    0  500    0  0.00000000000E+00  0.00000000000E+00 -9.07297536750E+02  9.07297536750E+02  0.00000000000E+00  0.0000E+00  9.0
       13    1    1    2    0    0  3.36702550670E+02  1.59492172380E+02 -7.06735585890E+02  7.98925253208E+02  1.05700000000E-01  0.0000E+00  9.0
      -13    1    1    2    0    0 -3.36702550670E+02 -1.59492172380E+02  7.01864763620E+01  3.79120710744E+02  1.05700000000E-01  0.0000E+00  9.0
</event>
<event>
 4    1   7.6478753E-02   1.0080000E+03  -1.0000000E+00   9.4010000E-02
        2   -1    0    0  500    0  0.00000000000E+00  0.00000000000E+00  1.70472160380E+03  1.70472160380E+03  0.00000000000E+00  0.0000E+00  9.0
       -2   -1    0    0    0  500  0.00000000000E+00  0.00000000000E+00 -1.48959597890E+02  1.48959597890E+02  0.00000000000E+00  0.0000E+00  9.0
       13    1    1    2    0    0 -5.25667515100E+01 -4.41185018710E+02  3.40587913490E+02  5.59828207655E+02  1.05700000000E-01  0.0000E+00  9.0
      -13    1    1    2    0    0  5.25667515100E+01  4.41185018710E+02  1.21517409240E+03  1.29385299401E+03  1.05700000000E-01  0.0000E+00  9.0
</event>
<event>
 4    1   7.6478753E-02   9.9940000E+02  -1.0000000E+00   9.4100000E-02
       -2   -1    0    0    0  500  0.00000000000E+00  0.00000000000E+00  3.05182040500E+02  3.05182040500E+02  0.00000000000E+00  0.0000E+00  9.0
        2   -1    0    0  500    0  0.00000000000E+00  0.00000000000E+00 -8.18219189330E+02  8.18219189330E+02  0.00000000000E+00  0.0000E+00  9.0
       13    1    1    2    0    0  3.59285220800E+02 -1.86949076260E+02  7.24882254540E+01  4.11449123224E+02  1.05700000000E-01  0.0000E+00  9.0
      -13    1    1    2    0    0 -3.59285220800E+02  1.86949076260E+02 -5.85525374280E+02  7.11952106604E+02  1.05700000000E-01  0.0000E+00  9.0
</event>
<event>
 4    1   7.6478753E-02   1.0020000E+03  -1.0000000E+00   9.4070000E-02
        1   -1    0    0  500    0  0.00000000000E+00  0.00000000000E+00  2.46631811060E+03  2.46631811060E+03  0.00000000000E+00  0.0000E+00  9.0
       -1   -1    0    0    0  500  0.00000000000E+00  0.00000000000E+00 -1.01822880870E+02  1.01822880870E+02  0.00000000000E+00  0.0000E+00  9.0
       13    1    1    2    0    0  2.57547489100E+02  7.92068969620E+01  2.26489970000E+03  2.28087156673E+03  1.05700000000E-01  0.0000E+00  9.0
      -13    1    1    2    0    0 -2.57547489100E+02 -7.92068969620E+01  9.95955296980E+01  2.87269424716E+02  1.05700000000E-01  0.0000E+00  9.0
</event>
<event>
 4    1   7.6478753E-02   9.8590000E+02  -1.0000000E+00   9.4250000E-02
        1   -1    0    0  500    0  0.00000000000E+00  0.00000000000E+00  3.56595342550E+02  3.56595342550E+02  0.00000000000E+00  0.0000E+00  9.0
       -1   -1    0    0    0  500  0.00000000000E+00  0.00000000000E+00 -6.81435103370E+02  6.81435103370E+02  0.00000000000E+00  0.0000E+00  9.0
       13    1    1    2    0    0  1.06718792860E+02  4.10553952130E+02  1.01962992900E+02  4.36279625301E+02  1.05700000000E-01  0.0000E+00  9.0
      -13    1    1    2    0    0 -1.06718792860E+02 -4.10553952130E+02 -4.26802753720E+02  6.01750820618E+02  1.05700000000E-01  0.0000E+00  9.0
</event>
<event>
 4    1   7.6478753E-02   9.9400000E+02  -1.0000000E+00   9.4160000E-02
       -1   -1    0    0    0  500  0.00000000000E+00  0.00000000000E+00  6.01836231240E+02  6.01836231240E+02  0.00000000000E+00  0.0000E+00  9.0
        1   -1    0    0  500    0  0.00000000000E+00  0.00000000000E+00 -4.10430036410E+02  4.10430036410E+02  0.00000000000E+00  0.0000E+00  9.0
       13    1    1    2    0    0 -3.36056652510E+02 -3.42541871140E+02  2.27473571750E+02  5.31049191881E+02  1.05700000000E-01  0.0000E+00  9.0
      -13    1    1    2    0    0  3.36056652510E+02  3.42541871140E+02 -3.60673769160E+01  4.81217075788E+02  1.05700000000E-01  0.0000E+00  9.0
</event>
<event>
 4    1   7.6478753E-02   9.9560000E+02  -1.0000000E+00   9.4150000E-02
        3   -1    0    0  500    0  0.00000000000E+00  0.00000000000E+00  1.87361875190E+02  1.87361981935E+02  2.00000000000E-01  0.0000E+00  9.0
       -3   -1    0    0    0  500  0.00000000000E+00  0.00000000000E+00 -1.32257113450E+03  1.32257114962E+03  2.00000000000E-01  0.0000E+00  9.0
       13    1    1    2    0    0 -3.70776579860E+02  1.17984760940E+02 -9.67090525170E+01  4.00934318808E+02  1.05700000000E-01  0.0000E+00  9.0
      -13    1    1    2    0    0  3.70776579860E+02 -1.17984760940E+02 -1.03850020680E+03  1.10899881275E+03  1.05700000000E-01  0.0000E+00  9.0
</event>
<event>
 4    1   7.6478753E-02   1.0240000E+03  -1.0000000E+00   9.3840000E-02
        1   -1    0    0  500    0  0.00000000000E+00  0.00000000000E+00  4.80262204190E+02  4.80262204190E+02  0.00000000000E+00  0.0000E+00  9.0
       -1   -1    0    0    0  500  0.00000000000E+00  0.00000000000E+00 -5.45823193710E+02  5.45823193710E+02  0.00000000000E+00  0.0000E+00  9.0
       13    1    1    2    0    0  4.47071276000E+02 -1.70827973130E+02  1.49480121700E+02  5.01397287771E+02  1.05700000000E-01  0.0000E+00  9.0
      -13    1    1    2    0    0 -4.47071276000E+02  1.70827973130E+02 -2.15041111220E+02  5.24688110133E+02  1.05700000000E-01  0.0000E+00  9.0
</event>
<event>
 4    1   7.6478753E-02   1.0020000E+03  -1.0000000E+00   9.4070000E-02
       -1   -1    0    0    0  500  0.00000000000E+00  0.00000000000E+00  4.28582507820E+02  4.28582507820E+02  0.00000000000E+00  0.0000E+00  9.0
        1   -1    0    0  500    0  0.00000000000E+00  0.00000000000E+00 -5.86042649460E+02  5.86042649460E+02  0.00000000000E+00  0.0000E+00  9.0
       13    1    1    2    0    0 -1.21549427580E+02  2.91747776010E+02 -4.72442984730E+02  5.68413065600E+02  1.05700000000E-01  0.0000E+00  9.0
      -13    1    1    2    0    0  1.21549427580E+02 -2.91747776010E+02  3.14982843080E+02  4.46212091677E+02  1.05700000000E-01  0.0000E+00  9.0
</event>
<event>
 4    1   7.6478753E-02   9.5770000E+02  -1.0000000E+00   9.4570000E-02
        1   -1    0    0  500    0  0.00000000000E+00  0.00000000000E+00  5.26868605980E+02  5.26868605980E+02  0.00000000000E+00  0.0000E+00  9.0
       -1   -1    0    0    0  500  0.00000000000E+00  0.00000000000E+00 -4.35225993660E+02  4.35225993660E+02  0.00000000000E+00  0.0000E+00  9.0
       13    1    1    2    0    0  2.27084897140E+02  6.10743351330E+01 -3.73228272560E+02  4.41131476469E+02  1.05700000000E-01  0.0000E+00  9.0
      -13    1    1    2    0    0 -2.27084897140E+02 -6.10743351330E+01  4.64870884880E+02  5.20963123170E+02  1.05700000000E-01  0.0000E+00  9.0
</event>
<event>
 4    1   7.6478753E-02   9.9670000E+02  -1.0000000E+00   9.4130000E-02
       -1   -1    0    0    0  500  0.00000000000E+00  0.00000000000E+00  1.00099914540E+02  1.00099914540E+02  0.00000000000E+00  0.0000E+00  9.0
        1   -1    0    0  500    0  0.00000000000E+00  0.00000000000E+00 -2.48100580620E+03  2.48100580620E+03  0.00000000000E+00  0.0000E+00  9.0
       13    1    1    2    0    0 -3.94755265000E+02 -1.65606043160E+02 -1.85115671500E+03  1.90001007246E+03  1.05700000000E-01  0.0000E+00  9.0
      -13    1    1    2    0    0  3.94755265000E+02  1.65606043160E+02 -5.29749176690E+02  6.81095648314E+02  1.05700000000E-01  0.0000E+00  9.0
</event>
<event>
 4    1   7.6478753E-02   1.0000000E+03  -1.0000000E+00   9.4100000E-02
        3   -1    0    0  500    0  0.00000000000E+00  0.00000000000E+00  8.52245855030E+02  8.52245878497E+02  2.00000000000E-01  0.0000E+00  9.0
       -3   -1    0    0    0  500  0.00000000000E+00  0.00000000000E+00 -2.93439992520E+02  2.93440060677E+02  2.00000000000E-01  0.0000E+00  9.0
       13    1    1    2    0    0  1.88377579780E+02 -4.31425112460E+02  8.61251299630E+01  4.78572136055E+02  1.05700000000E-01  0.0000E+00  9.0
      -13    1    1    2    0    0 -1.88377579780E+02  4.31425112460E+02  4.72680732540E+02  6.67113803119E+02  1.05700000000E-01  0.0000E+00  9.0
</event>
<event>
 4    1   7.6478753E-02   1.0090000E+03  -1.0000000E+00   9.4000000E-02
        1   -1    0    0  500    0  0.00000000000E+00  0.00000000000E+00  6.47210173930E+02  6.47210173930E+02  0.00000000000E+00  0.0000E+00  9.0
       -1   -1    0    0    0  500  0.00000000000E+00  0.00000000000E+00 -3.93395943490E+02  3.93395943490E+02  0.00000000000E+00  0.0000E+00  9.0
       13    1    1    2    0    0  1.12280417860E+02  3.34039191540E+02 -2.45477865140E+02  4.29474640888E+02  1.05700000000E-01  0.0000E+00  9.0
      -13    1    1    2    0    0 -1.12280417860E+02 -3.34039191540E+02  4.99292095580E+02  6.11131476526E+02  1.05700000000E-01  0.0000E+00  9.0
</event>
<event>
 4    1   7.6478753E-02   9.9860000E+02  -1.0000000E+00   9.4110000E-02
        1   -1    0    0  500    0  0.00000000000E+00  0.00000000000E+00  7.51141571320E+02  7.51141571320E+02  0.00000000000E+00  0.0000E+00  9.0
       -1   -1    0    0    0  500  0.00000000000E+00  0.00000000000E+00 -3.31893882520E+02  3.31893882520E+02  0.00000000000E+00  0.0000E+00  9.0
       13    1    1    2    0    0  4.01396635770E+02 -4.61209293260E+01 -1.08528307400E+02  4.18359658678E+02  1.05700000000E-01  0.0000E+00  9.0
      -13    1    1    2    0    0 -4.01396635770E+02  4.61209293260E+01  5.27775996200E+02  6.64675795156E+02  1.05700000000E-01  0.0000E+00  9.0
</event>
<event>
 4    1   7.6478753E-02   9.9890000E+02  -1.0000000E+00   9.4110000E-02
        1   -1    0    0  500    0  0.00000000000E+00  0.00000000000E+00  2.04713826620E+03  2.04713826620E+03  0.00000000000E+00  0.0000E+00  9.0
       -1   -1    0    0    0  500  0.00000000000E+00  0.00000000000E+00 -1.21861983140E+02  1.21861983140E+02  0.00000000000E+00  0.0000E+00  9.0
       13    1    1    2    0    0 -2.38070058400E+02  1.61041251660E+02  7.56992541590E+01  2.97223864613E+02  1.05700000000E-01  0.0000E+00  9.0
      -13    1    1    2    0    0  2.38070058400E+02 -1.61041251660E+02  1.84957702890E+03  1.87177638473E+03  1.05700000000E-01  0.0000E+00  9.0
</event>
<event>
 4    1   7.6478753E-02   9.9360000E+02  -1.0000000E+00   9.4170000E-02
       -2   -1    0    0    0  500  0.00000000000E+00  0.00000000000E+00  4.53567028330E+02  4.53567028330E+02  0.00000000000E+00  0.0000E+00  9.0
        2   -1    0    0  500    0  0.00000000000E+00  0.00000000000E+00 -5.44184302700E+02  5.44184302700E+02  0.00000000000E+00  0.0000E+00  9.0
       13    1    1    2    0    0 -3.70269410790E+02 -1.65407242130E+02 -3.33492772810E+02  5.25048981529E+02  1.05700000000E-01  0.0000E+00  9.0
      -13    1    1    2    0    0  3.70269410790E+02  1.65407242130E+02  2.42875498440E+02  4.72702349508E+02  1.05700000000E-01  0.0000E+00  9.0
</event>
<event>
 4    1   7.6478753E-02   1.0000000E+03  -1.0000000E+00   9.4100000E-02
        1   -1    0    0  500    0  0.00000000000E+00  0.00000000000E+00  2.65437123940E+02  2.65437123940E+02  0.00000000000E+00  0.0000E+00  9.0
       -1   -1    0    0    0  500  0.00000000000E+00  0.00000000000E+00 -9.41871629790E+02  9.41871629790E+02  0.00000000000E+00  0.0000E+00  9.0
       13    1    1    2    0    0 -2.96761803330E+01 -4.26741811910E+02 -2.56749501540E+01  4.28542254567E+02  1.05700000000E-01  0.0000E+00  9.0
      -13    1    1    2    0    0  2.96761803330E+01  4.26741811910E+02 -6.50759555690E+02  7.78766499155E+02  1.05700000000E-01  0.0000E+00  9.0
</event>
<event>
 4    1   7.6478753E-02   9.6180000E+02  -1.0000000E+00   9.4520000E-02
       -1   -1    0    0    0  500  0.00000000000E+00  0.00000000000E+00  7.89123478010E+02  7.89123478010E+02  0.00000000000E+00  0.0000E+00  9.0
        1   -1    0    0  500    0  0.00000000000E+00  0.00000000000E+00 -2.93049785430E+02  2.93049785430E+02  0.00000000000E+00  0.0000E+00  9.0
       13    1    1    2    0    0  1.48093598940E+02 -4.24357620680E+02  4.40444494370E+02  6.29287269909E+02  1.05700000000E-01  0.0000E+00  9.0
      -13    1    1    2    0    0 -1.48093598940E+02  4.24357620680E+02  5.56291982040E+01  4.52885993536E+02  1.05700000000E-01  0.0000E+00  9.0
</event>
<event>
 4    1   7.6478753E-02   9.9440000E+02  -1.0000000E+00   9.4160000E-02
       -1   -1    0    0    0  500  0.00000000000E+00  0.00000000000E+00  2.47809811140E+02  2.47809811140E+02  0.00000000000E+00  0.0000E+00  9.0
        1   -1    0    0  500    0  0.00000000000E+00  0.00000000000E+00 -9.97490940930E+02  9.97490940930E+02  0.00000000000E+00  0.0000E+00  9.0
       13    1    1    2    0    0 -2.41337605040E+02 -2.49015485300E+02  7.13517022460E+01  3.54039020606E+02  1.05700000000E-01  0.0000E+00  9.0
      -13    1    1    2    0    0  2.41337605040E+02  2.49015485300E+02 -8.21032832040E+02  8.91261731472E+02  1.05700000000E-01  0.0000E+00  9.0
</event>
<event>
 4    1   7.6478753E-02   1.0030000E+03  -1.0000000E+00   9.4060000E-02
        1   -1    0    0  500    0  0.00000000000E+00  0.00000000000E+00  1.76418005820E+03  1.76418005820E+03  0.00000000000E+00  0.0000E+00  9.0
       -1   -1    0    0    0  500  0.00000000000E+00  0.00000000000E+00 -1.42567315960E+02  1.42567315960E+02  0.00000000000E+00  0.0000E+00  9.0
       13    1    1    2    0    0 -1.35791804350E+02 -1.73635012640E+02 -4.55419125280E+01  2.25083559400E+02  1.05700000000E-01  0.0000E+00  9.0
      -13    1    1    2    0    0  1.35791804350E+02  1.73635012640E+02  1.66715465480E+03  1.68166381478E+03  1.05700000000E-01  0.0000E+00  9.0
</event>
<event>
 4    1   7.6478753E-02   9.8810000E+02  -1.0000000E+00   9.4230000E-02
       -1   -1    0    0    0  500  0.00000000000E+00  0.00000000000E+00  1.20967503130E+02  1.20967503130E+02  0.00000000000E+00  0.0000E+00  9.0
        1   -1    0    0  500    0  0.00000000000E+00  0.00000000000E+00 -2.01780615050E+03  2.01780615050E+03  0.00000000000E+00  0.0000E+00  9.0
       13    1    1    2    0    0  2.83739309220E+02  4.02049578000E+02 -8.53153531290E+02  9.84897364141E+02  1.05700000000E-01  0.0000E+00  9.0
      -13    1    1    2    0    0 -2.83739309220E+02 -4.02049578000E+02 -1.04368511610E+03  1.15387628952E+03  1.05700000000E-01  0.0000E+00  9.0
</event>
<event>
 4    1   7.6478753E-02   9.9950000E+02  -1.0000000E+00   9.4100000E-02
        1   -1    0    0  500    0  0.00000000000E+00  0.00000000000E+00  6.17141397560E+02  6.17141397560E+02  0.00000000000E+00  0.0000E+00  9.0
       -1   -1    0    0    0  500  0.00000000000E+00  0.00000000000E+00 -4.04706389440E+02  4.04706389440E+02  0.00000000000E+00  0.0000E+00  9.0
       13    1    1    2    0    0 -3.12695247790E+02  2.54233919320E+01 -2.91491593880E+02  4.28242953617E+02  1.05700000000E-01  0.0000E+00  9.0
      -13    1    1    2    0    0  3.12695247790E+02 -2.54233919320E+01  5.03926602000E+02  5.93604833390E+02  1.05700000000E-01  0.0000E+00  9.0
</event>
<event>
 4    1   7.6478753E-02   1.0010000E+03  -1.0000000E+00   9.4080000E-02
        1   -1    0    0  500    0  0.00000000000E+00  0.00000000000E+00  6.84721478280E+02  6.84721478280E+02  0.00000000000E+00  0.0000E+00  9.0
       -1   -1    0    0    0  500  0.00000000000E+00  0.00000000000E+00 -3.66034096860E+02  3.66034096860E+02  0.00000000000E+00  0.0000E+00  9.0
       13    1    1    2    0    0  1.35381464740E+02  2.63300289410E+02  5.83002334810E+02  6.53870718847E+02  1.05700000000E-01  0.0000E+00  9.0
      -13    1    1    2    0    0 -1.35381464740E+02 -2.63300289410E+02 -2.64314953390E+02  3.96884856295E+02  1.05700000000E-01  0.0000E+00  9.0
</event>
<event>
 4    1   7.6478753E-02   9.9740000E+02  -1.0000000E+00   9.4130000E-02
       -2   -1    0    0    0  500  0.00000000000E+00  0.00000000000E+00  8.41463183730E+02  8.41463183730E+02  0.00000000000E+00  0.0000E+00  9.0
        2   -1    0    0  500    0  0.00000000000E+00  0.00000000000E+00 -2.95542043870E+02  2.95542043870E+02  0.00000000000E+00  0.0000E+00  9.0
       13    1    1    2    0    0 -9.23119550510E+01  4.09509721710E+02  5.79847571540E+02  7.15851190272E+02  1.05700000000E-01  0.0000E+00  9.0
      -13    1    1    2    0    0  9.23119550510E+01 -4.09509721710E+02 -3.39264316920E+01  4.21154037331E+02  1.05700000000E-01  0.0000E+00  9.0
</event>
<event>
 4    1   7.6478753E-02   9.9430000E+02  -1.0000000E+00   9.4160000E-02
        1   -1    0    0  500    0  0.00000000000E+00  0.00000000000E+00  9.32165759210E+02  9.32165759210E+02  0.00000000000E+00  0.0000E+00  9.0
       -1   -1    0    0    0  500  0.00000000000E+00  0.00000000000E+00 -2.65164151310E+02  2.65164151310E+02  0.00000000000E+00  0.0000E+00  9.0
       13    1    1    2    0    0  2.50725120180E+02  1.61649889250E+02 -1.45415894560E+02  3.31872816222E+02  1.05700000000E-01  0.0000E+00  9.0
      -13    1    1    2    0    0 -2.50725120180E+02 -1.61649889250E+02  8.12417502460E+02  8.65457094292E+02  1.05700000000E-01  0.0000E+00  9.0
</event>
<event>
 4    1   7.5922996E-02   9.9980000E+02  -1.0000000E+00   9.4100000E-02
       -5   -1    0    0    0  500  0.00000000000E+00  0.00000000000E+00  1.29336710190E+03  1.29337424989E+03  4.30000000000E+00  0.0000E+00  9.0
        5   -1    0    0  500    0  0.00000000000E+00  0.00000000000E+00 -1.93189089180E+02  1.93236937924E+02  4.30000000000E+00  0.0000E+00  9.0
       13    1    1    2    0    0 -1.81417184200E+02 -4.46668541340E+02  7.46675695250E+02  8.88791080961E+02  1.05700000000E-01  0.0000E+00  9.0
      -13    1    1    2    0    0  1.81417184200E+02  4.46668541340E+02  3.53502317500E+02  5.97820106885E+02  1.05700000000E-01  0.0000E+00  9.0
</event>
<event>
 4    1   7.6478753E-02   9.8790000E+02  -1.0000000E+00   9.4230000E-02
        3   -1    0    0  500    0  0.00000000000E+00  0.00000000000E+00  4.84696026950E+02  4.84696068213E+02  2.00000000000E-01  0.0000E+00  9.0
       -3   -1    0    0    0  500  0.00000000000E+00  0.00000000000E+00 -5.03412479400E+02  5.03412519129E+02  2.00000000000E-01  0.0000E+00  9.0
       13    1    1    2    0    0  4.72945585020E+02  6.44461750870E+01  1.17830711060E+02  4.91645119486E+02  1.05700000000E-01  0.0000E+00  9.0
      -13    1    1    2    0    0 -4.72945585020E+02 -6.44461750870E+01 -1.36547163500E+02  4.96463467846E+02  1.05700000000E-01  0.0000E+00  9.0
</event>
<event>
 4    1   7.6478753E-02   1.0050000E+03  -1.0000000E+00   9.4040000E-02
       -1   -1    0    0    0  500  0.00000000000E+00  0.00000000000E+00  4.56050853450E+02  4.56050853450E+02  0.00000000000E+00  0.0000E+00  9.0
        1   -1    0    0  500    0  0.00000000000E+00  0.00000000000E+00 -5.53563807610E+02  5.53563807610E+02  0.00000000000E+00  0.0000E+00  9.0
       13    1    1    2    0    0 -4.76037045170E+00 -2.44964107690E+02 -4.89477578100E+02  5.47374082158E+02  1.05700000000E-01  0.0000E+00  9.0
      -13    1    1    2    0    0  4.76037045170E+00  2.44964107690E+02  3.91964623950E+02  4.62240578902E+02  1.05700000000E-01  0.0000E+00  9.0
</event>
<event>
 4    1   7.6478753E-02   9.7530000E+02  -1.0000000E+00   9.4370000E-02
        3   -1    0    0  500    0  0.00000000000E+00  0.00000000000E+00  1.02942147110E+03  1.02942149053E+03  2.00000000000E-01  0.0000E+00  9.0
       -3   -1    0    0    0  500  0.00000000000E+00  0.00000000000E+00 -2.31013604430E+02  2.31013691005E+02  2.00000000000E-01  0.0000E+00  9.0
       13    1    1    2    0    0  2.75183046980E+02  3.98574279440E+02  4.72574584720E+02  6.76693368426E+02  1.05700000000E-01  0.0000E+00  9.0
      -13    1    1    2    0    0 -2.75183046980E+02 -3.98574279440E+02  3.25833281960E+02  5.83741813117E+02  1.05700000000E-01  0.0000E+00  9.0
</event>
<event>
 4    1   7.6478753E-02   1.1140000E+03  -1.0000000E+00   9.2940000E-02
        1   -1    0    0  500    0  0.00000000000E+00  0.00000000000E+00  3.39024442720E+02  3.39024442720E+02  0.00000000000E+00  0.0000E+00  9.0
       -1   -1    0    0    0  500  0.00000000000E+00  0.00000000000E+00 -9.15180320110E+02  9.15180320110E+02  0.00000000000E+00  0.0000E+00  9.0
       13    1    1    2    0    0  3.99151911240E+02 -3.88291468730E+02 -2.73143333530E+02  6.20241730908E+02  1.05700000000E-01  0.0000E+00  9.0
      -13    1    1    2    0    0 -3.99151911240E+02  3.88291468730E+02 -3.03012543860E+02  6.33963031922E+02  1.05700000000E-01  0.0000E+00  9.0
</event>
<event>
 4    1   7.6478753E-02   9.9920000E+02  -1.0000000E+00   9.4110000E-02
       -2   -1    0    0    0  500  0.00000000000E+00  0.00000000000E+00  6.73088963360E+01  6.73088963360E+01  0.00000000000E+00  0.0000E+00  9.0
        2   -1    0    0  500    0  0.00000000000E+00  0.00000000000E+00 -3.70792915560E+03  3.70792915560E+03  0.00000000000E+00  0.0000E+00  9.0
       13    1    1    2    0    0  4.82352031010E+02 -9.43437451120E+01 -1.48209481190E+03  1.56146382177E+03  1.05700000000E-01  0.0000E+00  9.0
      -13    1    1    2    0    0 -4.82352031010E+02  9.43437451120E+01 -2.15852544740E+03  2.21377423020E+03  1.05700000000E-01  0.0000E+00  9.0
</event>
<event>
 4    1   7.6478753E-02   9.9850000E+02  -1.0000000E+00   9.4110000E-02
       -1   -1    0    0    0  500  0.00000000000E+00  0.00000000000E+00  7.09278769520E+02  7.09278769520E+02  0.00000000000E+00  0.0000E+00  9.0
        1   -1    0    0  500    0  0.00000000000E+00  0.00000000000E+00 -3.51380479110E+02  3.51380479110E+02  0.00000000000E+00  0.0000E+00  9.0
       13    1    1    2    0    0  9.35691988720E+00 -4.92090071150E+02  9.01561276160E+01  5.00368193027E+02  1.05700000000E-01  0.0000E+00  9.0
      -13    1    1    2    0    0 -9.35691988720E+00  4.92090071150E+02  2.67742162800E+02  5.60291055602E+02  1.05700000000E-01  0.0000E+00  9.0
</event>
<event>
 4    1   7.6478753E-02   1.0010000E+03  -1.0000000E+00   9.4080000E-02
       -2   -1    0    0    0  500  0.00000000000E+00  0.00000000000E+00  7.15777683770E+02  7.15777683770E+02  0.00000000000E+00  0.0000E+00  9.0
        2   -1    0    0  500    0  0.00000000000E+00  0.00000000000E+00 -3.50240208910E+02  3.50240208910E+02  0.00000000000E+00  0.0000E+00  9.0
       13    1    1    2    0    0 -4.93852660120E+02  2.86795341130E+01  1.00439380910E+02  5.04778214659E+02  1.05700000000E-01  0.0000E+00  9.0
      -13    1    1    2    0    0  4.93852660120E+02 -2.86795341130E+01  2.65098093950E+02  5.61239678010E+02  1.05700000000E-01  0.0000E+00  9.0
</event>
<event>
 4    1   7.6478753E-02   1.0050000E+03  -1.0000000E+00   9.4040000E-02
        2   -1    0    0  500    0  0.00000000000E+00  0.00000000000E+00  3.89070478990E+02  3.89070478990E+02  0.00000000000E+00  0.0000E+00  9.0
       -2   -1    0    0    0  500  0.00000000000E+00  0.00000000000E+00 -6.49215735980E+02  6.49215735980E+02  0.00000000000E+00  0.0000E+00  9.0
       13    1    1    2    0    0 -1.03183319070E+02 -4.81290614390E+02 -2.52235108000E+01  4.92872893862E+02  1.05700000000E-01  0.0000E+00  9.0
      -13    1    1    2    0    0  1.03183319070E+02  4.81290614390E+02 -2.34921746190E+02  5.45413321106E+02  1.05700000000E-01  0.0000E+00  9.0
</event>
<event>
 4    1   7.6478753E-02   1.0060000E+03  -1.0000000E+00   9.4030000E-02
        1   -1    0    0  500    0  0.00000000000E+00  0.00000000000E+00  5.60023374620E+02  5.60023374620E+02  0.00000000000E+00  0.0000E+00  9.0
       -1   -1    0    0    0  500  0.00000000000E+00  0.00000000000E+00 -4.52072192520E+02  4.52072192520E+02  0.00000000000E+00  0.0000E+00  9.0
       13    1    1    2    0    0  2.73628064880E+02 -2.68720367650E+02 -2.73604685290E+02  4.71107725329E+02  1.05700000000E-01  0.0000E+00  9.0
      -13    1    1    2    0    0 -2.73628064880E+02  2.68720367650E+02  3.81555867390E+02  5.40987841815E+02  1.05700000000E-01  0.0000E+00  9.0
</event>
<event>
 4    1   7.6478753E-02   1.0050000E+03  -1.0000000E+00   9.4040000E-02
       -2   -1    0    0    0  500  0.00000000000E+00  0.00000000000E+00  1.83308587230E+02  1.83308587230E+02  0.00000000000E+00  0.0000E+00  9.0
        2   -1    0    0  500    0  0.00000000000E+00  0.00000000000E+00 -1.37735289490E+03  1.37735289490E+03  0.00000000000E+00  0.0000E+00  9.0
       13    1    1    2    0    0  3.88536784800E+01  2.73421558640E+02  5.48793769440E+01  2.81568311866E+02  1.05700000000E-01  0.0000E+00  9.0
      -13    1    1    2    0    0 -3.88536784800E+01 -2.73421558640E+02 -1.24892368460E+03  1.27909317025E+03  1.05700000000E-01  0.0000E+00  9.0
</event>
<event>
 4    1   7.6478753E-02   9.9170000E+02  -1.0000000E+00   9.4190000E-02
        2   -1    0    0  500    0  0.00000000000E+00  0.00000000000E+00  3.79158828070E+03  3.79158828070E+03  0.00000000000E+00  0.0000E+00  9.0
       -2   -1    0    0    0  500  0.00000000000E+00  0.00000000000E+00 -6.48401179610E+01  6.48401179610E+01  0.00000000000E+00  0.0000E+00  9.0
       13    1    1    2    0    0 -4.76443823390E+01 -4.92207581710E+02  2.00405906570E+03  2.06416836538E+03  1.05700000000E-01  0.0000E+00  9.0
      -13    1    1    2    0    0  4.76443823390E+01  4.92207581710E+02  1.72268909710E+03  1.79226003334E+03  1.05700000000E-01  0.0000E+00  9.0
</event>
<event>
 4    1   7.6478753E-02   9.9100000E+02  -1.0000000E+00   9.4190000E-02
       -1   -1    0    0    0  500  0.00000000000E+00  0.00000000000E+00  2.82968909300E+02  2.82968909300E+02  0.00000000000E+00  0.0000E+00  9.0
        1   -1    0    0  500    0  0.00000000000E+00  0.00000000000E+00 -8.67739987550E+02  8.67739987550E+02  0.00000000000E+00  0.0000E+00  9.0
       13    1    1    2    0    0  1.32709826820E+02  4.68376133700E+02 -1.84989172610E+02  5.20777405337E+02  1.05700000000E-01  0.0000E+00  9.0
      -13    1    1    2    0    0 -1.32709826820E+02 -4.68376133700E+02 -3.99781905630E+02  6.29931491510E+02  1.05700000000E-01  0.0000E+00  9.0
</event>
<event>
 4    1   7.6478753E-02   9.9850000E+02  -1.0000000E+00   9.4110000E-02
       -2   -1    0    0    0  500  0.00000000000E+00  0.00000000000E+00  1.60869544680E+03  1.60869544680E+03  0.00000000000E+00  0.0000E+00  9.0
        2   -1    0    0  500    0  0.00000000000E+00  0.00000000000E+00 -1.54953997460E+02  1.54953997460E+02  0.00000000000E+00  0.0000E+00  9.0
       13    1    1    2    0    0  3.49765515670E+02  6.20813856240E+01  1.07223730770E+02  3.71061927454E+02  1.05700000000E-01  0.0000E+00  9.0
      -13    1    1    2    0    0 -3.49765515670E+02 -6.20813856240E+01  1.34651771860E+03  1.39258751684E+03  1.05700000000E-01  0.0000E+00  9.0
</event>
<event>
 4    1   7.6478753E-02   1.0050000E+03  -1.0000000E+00   9.4050000E-02
        2   -1    0    0  500    0  0.00000000000E+00  0.00000000000E+00  1.59937215800E+03  1.59937215800E+03  0.00000000000E+00  0.0000E+00  9.0
       -2   -1    0    0    0  500  0.00000000000E+00  0.00000000000E+00 -1.57742019130E+02  1.57742019130E+02  0.00000000000E+00  0.0000E+00  9.0
       13    1    1    2    0    0  2.70004147810E+02 -2.10540433010E+02  7.80048749920E+01  3.51161338222E+02  1.05700000000E-01  0.0000E+00  9.0
      -13    1    1    2    0    0 -2.70004147810E+02  2.10540433010E+02  1.36362526390E+03  1.40595283893E+03  1.05700000000E-01  0.0000E+00  9.0
</event>
<event>
 4    1   7.6478753E-02   9.8030000E+02  -1.0000000E+00   9.4310000E-02
       -1   -1    0    0    0  500  0.00000000000E+00  0.00000000000E+00  1.13981520760E+02  1.13981520760E+02  0.00000000000E+00  0.0000E+00  9.0
        1   -1    0    0  500    0  0.00000000000E+00  0.00000000000E+00 -2.10783910250E+03  2.10783910250E+03  0.00000000000E+00  0.0000E+00  9.0
       13    1    1    2    0    0 -4.27066015980E+02 -2.34231785880E+02 -8.72692162650E+02  9.99420598870E+02  1.05700000000E-01  0.0000E+00  9.0
      -13    1    1    2    0    0  4.27066015980E+02  2.34231785880E+02 -1.12116541910E+03  1.22240002441E+03  1.05700000000E-01  0.0000E+00  9.0
</event>
<event>
 4    1   7.6478753E-02   9.8320000E+02  -1.0000000E+00   9.4280000E-02
       -2   -1    0    0    0  500  0.00000000000E+00  0.00000000000E+00  1.90266701580E+02  1.90266701580E+02  0.00000000000E+00  0.0000E+00  9.0
        2   -1    0    0  500    0  0.00000000000E+00  0.00000000000E+00 -1.27028886050E+03  1.27028886050E+03  0.00000000000E+00  0.0000E+00  9.0
       13    1    1    2    0    0  3.94538099870E+02  2.14084544820E+02 -8.37845383390E+02  9.50514283017E+02  1.05700000000E-01  0.0000E+00  9.0
      -13    1    1    2    0    0 -3.94538099870E+02 -2.14084544820E+02 -2.42176775560E+02  5.10041279087E+02  1.05700000000E-01  0.0000E+00  9.0
</event>
<event>
 4    1   7.6478753E-02   9.9160000E+02  -1.0000000E+00   9.4190000E-02
       -2   -1    0    0    0  500  0.00000000000E+00  0.00000000000E+00  1.46219541560E+02  1.46219541560E+02  0.00000000000E+00  0.0000E+00  9.0
        2   -1    0    0  500    0  0.00000000000E+00  0.00000000000E+00 -1.68121973570E+03  1.68121973570E+03  0.00000000000E+00  0.0000E+00  9.0
       13    1    1    2    0    0  4.11938216310E+02  4.34093143030E+01 -1.26966386860E+03  1.33552379725E+03  1.05700000000E-01  0.0000E+00  9.0
      -13    1    1    2    0    0 -4.11938216310E+02 -4.34093143030E+01 -2.65336325480E+02  4.91915479952E+02  1.05700000000E-01  0.0000E+00  9.0
</event>
<event>
 4    1   7.6478753E-02   9.3350000E+02  -1.0000000E+00   9.4850000E-02
        1   -1    0    0  500    0  0.00000000000E+00  0.00000000000E+00  1.37490083280E+03  1.37490083280E+03  0.00000000000E+00  0.0000E+00  9.0
       -1   -1    0    0    0  500  0.00000000000E+00  0.00000000000E+00 -1.58450468260E+02  1.58450468260E+02  0.00000000000E+00  0.0000E+00  9.0
       13    1    1    2    0    0 -3.68712585660E+02 -1.90941467370E+02  9.58393873750E+02  1.04447424248E+03  1.05700000000E-01  0.0000E+00  9.0
      -13    1    1    2    0    0  3.68712585660E+02  1.90941467370E+02  2.58056490760E+02  4.88877058555E+02  1.05700000000E-01  0.0000E+00  9.0
</event>
<event>
 4    1   7.6478753E-02   1.1320000E+03  -1.0000000E+00   9.2780000E-02
       -2   -1    0    0    0  500  0.00000000000E+00  0.00000000000E+00  2.63340467600E+02  2.63340467600E+02  0.00000000000E+00  0.0000E+00  9.0
        2   -1    0    0  500    0  0.00000000000E+00  0.00000000000E+00 -1.21592381680E+03  1.21592381680E+03  0.00000000000E+00  0.0000E+00  9.0
       13    1    1    2    0    0  4.35077132390E+02  3.34011561280E+02 -2.94488894980E+02  6.22558876442E+02  1.05700000000E-01  0.0000E+00  9.0
      -13    1    1    2    0    0 -4.35077132390E+02 -3.34011561280E+02 -6.58094454220E+02  8.56705407970E+02  1.05700000000E-01  0.0000E+00  9.0
</event>
<event>
 4    1   7.6478753E-02   9.9990000E+02  -1.0000000E+00   9.4100000E-02
        1   -1    0    0  500    0  0.00000000000E+00  0.00000000000E+00  1.52479059190E+03  1.52479059190E+03  0.00000000000E+00  0.0000E+00  9.0
       -1   -1    0    0    0  500  0.00000000000E+00  0.00000000000E+00 -1.63938972950E+02  1.63938972950E+02  0.00000000000E+00  0.0000E+00  9.0
       13    1    1    2    0    0 -6.97280503530E+00  8.03745075340E+01 -1.52873844140E+02  1.72855734258E+02  1.05700000000E-01  0.0000E+00  9.0
      -13    1    1    2    0    0  6.97280503530E+00 -8.03745075340E+01  1.51372546310E+03  1.51587383059E+03  1.05700000000E-01  0.0000E+00  9.0
</event>
<event>
 4    1   7.6478753E-02   1.0000000E+03  -1.0000000E+00   9.4090000E-02
        1   -1    0    0  500    0  0.00000000000E+00  0.00000000000E+00  1.67108780210E+03  1.67108780210E+03  0.00000000000E+00  0.0000E+00  9.0
       -1   -1    0    0    0  500  0.00000000000E+00  0.00000000000E+00 -1.49733179830E+02  1.49733179830E+02  0.00000000000E+00  0.0000E+00  9.0
       13    1    1    2    0    0 -3.12883259840E+02  9.48350490710E+01  1.44971598450E+03  1.48612451285E+03  1.05700000000E-01  0.0000E+00  9.0
      -13    1    1    2    0    0  3.12883259840E+02 -9.48350490710E+01  7.16386377680E+01  3.34696469079E+02  1.05700000000E-01  0.0000E+00  9.0
</event>
<event>
 4    1   7.6478753E-02   9.9820000E+02  -1.0000000E+00   9.4120000E-02
       -2   -1    0    0    0  500  0.00000000000E+00  0.00000000000E+00  1.40188911360E+02  1.40188911360E+02  0.00000000000E+00  0.0000E+00  9.0
        2   -1    0    0  500    0  0.00000000000E+00  0.00000000000E+00 -1.77677480610E+03  1.77677480610E+03  0.00000000000E+00  0.0000E+00  9.0
       13    1    1    2    0    0  3.48496744060E+02 -1.15589086980E+02 -1.46750003250E+03  1.51273499801E+03  1.05700000000E-01  0.0000E+00  9.0
      -13    1    1    2    0    0 -3.48496744060E+02  1.15589086980E+02 -1.69085862250E+02  4.04228719458E+02  1.05700000000E-01  0.0000E+00  9.0
</event>
<event>
 4    1   7.6478753E-02   9.9580000E+02  -1.0000000E+00   9.4140000E-02
       -2   -1    0    0    0  500  0.00000000000E+00  0.00000000000E+00  1.44011603920E+03  1.44011603920E+03  0.00000000000E+00  0.0000E+00  9.0
        2   -1    0    0  500    0  0.00000000000E+00  0.00000000000E+00 -1.72154870460E+02  1.72154870460E+02  0.00000000000E+00  0.0000E+00  9.0
       13    1    1    2    0    0 -1.64798615800E+02  3.18017894540E+02  7.40065579820E+01  3.65747107732E+02  1.05700000000E-01  0.0000E+00  9.0
      -13    1    1    2    0    0  1.64798615800E+02 -3.18017894540E+02  1.19395461080E+03  1.24652380195E+03  1.05700000000E-01  0.0000E+00  9.0
</event>
<event>
 4    1   7.6478753E-02   1.0050000E+03  -1.0000000E+00   9.4040000E-02
       -1   -1    0    0    0  500  0.00000000000E+00  0.00000000000E+00  2.62707363720E+02  2.62707363720E+02  0.00000000000E+00  0.0000E+00  9.0
        1   -1    0    0  500    0  0.00000000000E+00  0.00000000000E+00 -9.61056439310E+02  9.61056439310E+02  0.00000000000E+00  0.0000E+00  9.0
       13    1    1    2    0    0 -2.67840851550E+02 -1.13500668580E+02  1.49738422480E+02  3.27173852663E+02  1.05700000000E-01  0.0000E+00  9.0
      -13    1    1    2    0    0  2.67840851550E+02  1.13500668580E+02 -8.48087498080E+02  8.96589950367E+02  1.05700000000E-01  0.0000E+00  9.0
</event>
<event>
 4    1   7.6478753E-02   1.0010000E+03  -1.0000000E+00   9.4090000E-02
       -1   -1    0    0    0  500  0.00000000000E+00  0.00000000000E+00  6.26026413090E+02  6.26026413090E+02  0.00000000000E+00  0.0000E+00  9.0
        1   -1    0    0  500    0  0.00000000000E+00  0.00000000000E+00 -3.99847938890E+02  3.99847938890E+02  0.00000000000E+00  0.0000E+00  9.0
       13    1    1    2    0    0 -9.58178921810E+01 -4.22063968680E+01  6.14668732510E+02  6.23522341457E+02  1.05700000000E-01  0.0000E+00  9.0
      -13    1    1    2    0    0  9.58178921810E+01  4.22063968680E+01 -3.88490258310E+02  4.02352010524E+02  1.05700000000E-01  0.0000E+00  9.0
</event>
<event>
 4    1   7.6478753E-02   1.0000000E+03  -1.0000000E+00   9.4090000E-02
       -1   -1    0    0    0  500  0.00000000000E+00  0.00000000000E+00  1.83167522050E+02  1.83167522050E+02  0.00000000000E+00  0.0000E+00  9.0
        1   -1    0    0  500    0  0.00000000000E+00  0.00000000000E+00 -1.36591649110E+03  1.36591649110E+03  0.00000000000E+00  0.0000E+00  9.0
       13    1    1    2    0    0  2.97671528550E+02  5.62040182690E+01 -1.20771336000E+03  1.24512601839E+03  1.05700000000E-01  0.0000E+00  9.0
      -13    1    1    2    0    0 -2.97671528550E+02 -5.62040182690E+01  2.49643909630E+01  3.03957994742E+02  1.05700000000E-01  0.0000E+00  9.0
</event>
<event>
 4    1   7.6478753E-02   9.9810000E+02  -1.0000000E+00   9.4120000E-02
        3   -1    0    0  500    0  0.00000000000E+00  0.00000000000E+00  2.94075172320E+02  2.94075240330E+02  2.00000000000E-01  0.0000E+00  9.0
       -3   -1    0    0    0  500  0.00000000000E+00  0.00000000000E+00 -8.46835560050E+02  8.46835583667E+02  2.00000000000E-01  0.0000E+00  9.0
       13    1    1    2    0    0 -1.43431616000E+02  1.32835333300E+02 -8.01241075130E+02  8.24745491585E+02  1.05700000000E-01  0.0000E+00  9.0
      -13    1    1    2    0    0  1.43431616000E+02 -1.32835333300E+02  2.48480687390E+02  3.16165332413E+02  1.05700000000E-01  0.0000E+00  9.0
</event>
<event>
 4    1   7.6478753E-02   1.0030000E+03  -1.0000000E+00   9.4070000E-02
       -2   -1    0    0    0  500  0.00000000000E+00  0.00000000000E+00  1.34406970670E+02  1.34406970670E+02  0.00000000000E+00  0.0000E+00  9.0
        2   -1    0    0  500    0  0.00000000000E+00  0.00000000000E+00 -1.87059632560E+03  1.87059632560E+03  0.00000000000E+00  0.0000E+00  9.0
       13    1    1    2    0    0  2.05230897710E+02  4.30179019260E+02 -1.17942206310E+03  1.27208888215E+03  1.05700000000E-01  0.0000E+00  9.0
      -13    1    1    2    0    0 -2.05230897710E+02 -4.30179019260E+02 -5.56767291810E+02  7.32914414095E+02  1.05700000000E-01  0.0000E+00  9.0
</event>
<event>
 4    1   7.6478753E-02   9.9830000E+02  -1.0000000E+00   9.4120000E-02
       -1   -1    0    0    0  500  0.00000000000E+00  0.00000000000E+00  3.21646335650E+02  3.21646335650E+02  0.00000000000E+00  0.0000E+00  9.0
        1   -1    0    0  500    0  0.00000000000E+00  0.00000000000E+00 -7.74671079250E+02  7.74671079250E+02  0.00000000000E+00  0.0000E+00  9.0
       13    1    1    2    0    0 -1.70141370440E+02  1.70094692670E+02 -7.06803165860E+02  7.46626423891E+02  1.05700000000E-01  0.0000E+00  9.0
      -13    1    1    2    0    0  1.70141370440E+02 -1.70094692670E+02  2.53778422260E+02  3.49690991001E+02  1.05700000000E-01  0.0000E+00  9.0
</event>
<event>
 4    1   7.6478753E-02   1.0010000E+03  -1.0000000E+00   9.4080000E-02
       -3   -1    0    0    0  500  0.00000000000E+00  0.00000000000E+00  2.83934017000E+02  2.83934087439E+02  2.00000000000E-01  0.0000E+00  9.0
        3   -1    0    0  500    0  0.00000000000E+00  0.00000000000E+00 -8.82661943000E+02  8.82661965659E+02  2.00000000000E-01  0.0000E+00  9.0
       13    1    1    2    0    0 -1.70899907340E+02 -2.85201200880E+02  1.36708950420E+02  3.59493882576E+02  1.05700000000E-01  0.0000E+00  9.0
      -13    1    1    2    0    0  1.70899907340E+02  2.85201200880E+02 -7.35436876410E+02  8.07102170526E+02  1.05700000000E-01  0.0000E+00  9.0
</event>
<event>
 4    1   7.6478753E-02   1.0010000E+03  -1.0000000E+00   9.4080000E-02
        1   -1    0    0  500    0  0.00000000000E+00  0.00000000000E+00  1.80007815980E+03  1.80007815980E+03  0.00000000000E+00  0.0000E+00  9.0
       -1   -1    0    0    0  500  0.00000000000E+00  0.00000000000E+00 -1.39284415860E+02  1.39284415860E+02  0.00000000000E+00  0.0000E+00  9.0
       13    1    1    2    0    0 -8.53312805660E+01 -2.86738562510E+01 -1.23485139750E+02  1.52814293791E+02  1.05700000000E-01  0.0000E+00  9.0
      -13    1    1    2    0    0  8.53312805660E+01  2.86738562510E+01  1.78427888370E+03  1.78654828187E+03  1.05700000000E-01  0.0000E+00  9.0
</event>
<event>
 4    1   7.6478753E-02   9.8850000E+02  -1.0000000E+00   9.4220000E-02
       -1   -1    0    0    0  500  0.00000000000E+00  0.00000000000E+00  2.49586290360E+02  2.49586290360E+02  0.00000000000E+00  0.0000E+00  9.0
        1   -1    0    0  500    0  0.00000000000E+00  0.00000000000E+00 -9.78679716920E+02  9.78679716920E+02  0.00000000000E+00  0.0000E+00  9.0
       13    1    1    2    0    0  3.10155057610E+02  3.60546212940E+02 -1.97485932790E+02  5.14966441867E+02  1.05700000000E-01  0.0000E+00  9.0
      -13    1    1    2    0    0 -3.10155057610E+02 -3.60546212940E+02 -5.31607493760E+02  7.13299565415E+02  1.05700000000E-01  0.0000E+00  9.0
</event>
<event>
 4    1   7.6478753E-02   9.9810000E+02  -1.0000000E+00   9.4120000E-02
       -3   -1    0    0    0  500  0.00000000000E+00  0.00000000000E+00  4.08448317990E+02  4.08448366956E+02  2.00000000000E-01  0.0000E+00  9.0
        3   -1    0    0  500    0  0.00000000000E+00  0.00000000000E+00 -6.09755936760E+02  6.09755969560E+02  2.00000000000E-01  0.0000E+00  9.0
       13    1    1    2    0    0  2.46564963210E+02 -1.87203920320E+02 -4.99961693160E+02  5.88048717936E+02  1.05700000000E-01  0.0000E+00  9.0
      -13    1    1    2    0    0 -2.46564963210E+02  1.87203920320E+02  2.98654074390E+02  4.30155618571E+02  1.05700000000E-01  0.0000E+00  9.0
</event>
<event>
 4    1   7.6478753E-02   1.0000000E+03  -1.0000000E+00   9.4090000E-02
       -1   -1    0    0    0  500  0.00000000000E+00  0.00000000000E+00  1.25429333300E+02  1.25429333300E+02  0.00000000000E+00  0.0000E+00  9.0
        1   -1    0    0  500    0  0.00000000000E+00  0.00000000000E+00 -1.99488381660E+03  1.99488381660E+03  0.00000000000E+00  0.0000E+00  9.0
       13    1    1    2    0    0 -1.25669046640E+02 -1.91409635780E+02  7.83504485790E+00  2.29110796457E+02  1.05700000000E-01  0.0000E+00  9.0
      -13    1    1    2    0    0  1.25669046640E+02  1.91409635780E+02 -1.87728952820E+03  1.89120235348E+03  1.05700000000E-01  0.0000E+00  9.0
</event>
<event>
 4    1   7.6478753E-02   1.0180000E+03  -1.0000000E+00   9.3900000E-02
        1   -1    0    0  500    0  0.00000000000E+00  0.00000000000E+00  1.27985483230E+03  1.27985483230E+03  0.00000000000E+00  0.0000E+00  9.0
       -1   -1    0    0    0  500  0.00000000000E+00  0.00000000000E+00 -2.02540798560E+02  2.02540798560E+02  0.00000000000E+00  0.0000E+00  9.0
       13    1    1    2    0    0  3.11152419230E+02  1.02690416550E+02  1.10596851440E+03  1.15348494384E+03  1.05700000000E-01  0.0000E+00  9.0
      -13    1    1    2    0    0 -3.11152419230E+02 -1.02690416550E+02 -2.86544806110E+01  3.28910687080E+02  1.05700000000E-01  0.0000E+00  9.0
</event>
<event>
 4    1   7.6478753E-02   1.0060000E+03  -1.0000000E+00   9.4030000E-02
       -1   -1    0    0    0  500  0.00000000000E+00  0.00000000000E+00  1.42754442100E+02  1.42754442100E+02  0.00000000000E+00  0.0000E+00  9.0
        1   -1    0    0  500    0  0.00000000000E+00  0.00000000000E+00 -1.77379403150E+03  1.77379403150E+03  0.00000000000E+00  0.0000E+00  9.0
       13    1    1    2    0    0  2.99554033090E+02  1.47434802720E+02 -9.85500320750E+01  3.48111705905E+02  1.05700000000E-01  0.0000E+00  9.0
      -13    1    1    2    0    0 -2.99554033090E+02 -1.47434802720E+02 -1.53248955740E+03  1.56843676777E+03  1.05700000000E-01  0.0000E+00  9.0
</event>
<event>
 4    1   7.6478753E-02   1.0060000E+03  -1.0000000E+00   9.4030000E-02
        1   -1    0    0  500    0  0.00000000000E+00  0.00000000000E+00  5.42001524170E+02  5.42001524170E+02  0.00000000000E+00  0.0000E+00  9.0
       -1   -1    0    0    0  500  0.00000000000E+00  0.00000000000E+00 -4.67008479810E+02  4.67008479810E+02  0.00000000000E+00  0.0000E+00  9.0
       13    1    1    2    0    0  1.23413661720E+02 -4.87688565750E+02  4.44603943000E+01  5.05022580581E+02  1.05700000000E-01  0.0000E+00  9.0
      -13    1    1    2    0    0 -1.23413661720E+02  4.87688565750E+02  3.05326500550E+01  5.03987423409E+02  1.05700000000E-01  0.0000E+00  9.0
</event>
<event>
 4    1   7.6478753E-02   1.0090000E+03  -1.0000000E+00   9.4000000E-02
        1   -1    0    0  500    0  0.00000000000E+00  0.00000000000E+00  2.49283735610E+02  2.49283735610E+02  0.00000000000E+00  0.0000E+00  9.0
       -1   -1    0    0    0  500  0.00000000000E+00  0.00000000000E+00 -1.02110759300E+03  1.02110759300E+03  0.00000000000E+00  0.0000E+00  9.0
       13    1    1    2    0    0 -2.02562974770E+01  4.95689866180E+02 -2.70339383970E+02  5.64979782575E+02  1.05700000000E-01  0.0000E+00  9.0
      -13    1    1    2    0    0  2.02562974770E+01 -4.95689866180E+02 -5.01484473420E+02  7.05411546032E+02  1.05700000000E-01  0.0000E+00  9.0
</event>
<event>
 4    1   7.6478753E-02   1.0000000E+03  -1.0000000E+00   9.4100000E-02
        1   -1    0    0  500    0  0.00000000000E+00  0.00000000000E+00  6.98695414380E+02  6.98695414380E+02  0.00000000000E+00  0.0000E+00  9.0
       -1   -1    0    0    0  500  0.00000000000E+00  0.00000000000E+00 -3.57786065550E+02  3.57786065550E+02  0.00000000000E+00  0.0000E+00  9.0
       13    1    1    2    0    0 -3.19399606310E+02  7.76213026280E+01 -2.27590304090E+02  3.99798115079E+02  1.05700000000E-01  0.0000E+00  9.0
      -13    1    1    2    0    0  3.19399606310E+02 -7.76213026280E+01  5.68499652920E+02  6.56683364853E+02  1.05700000000E-01  0.0000E+00  9.0
</event>
<event>
 4    1   7.6478753E-02   9.8500000E+02  -1.0000000E+00   9.4260000E-02
        1   -1    0    0  500    0  0.00000000000E+00  0.00000000000E+00  6.79344786080E+02  6.79344786080E+02  0.00000000000E+00  0.0000E+00  9.0
       -1   -1    0    0    0  500  0.00000000000E+00  0.00000000000E+00 -3.57028393050E+02  3.57028393050E+02  0.00000000000E+00  0.0000E+00  9.0
       13    1    1    2    0    0 -1.56659322370E+02 -1.50703741220E+02 -3.03818787450E+02  3.73576802924E+02  1.05700000000E-01  0.0000E+00  9.0
      -13    1    1    2    0    0  1.56659322370E+02  1.50703741220E+02  6.26135180480E+02  6.62796376205E+02  1.05700000000E-01  0.0000E+00  9.0
</event>
<event>
 4    1   7.6478753E-02   1.0000000E+03  -1.0000000E+00   9.4090000E-02
        1   -1    0    0  500    0  0.00000000000E+00  0.00000000000E+00  7.63245734230E+02  7.63245734230E+02  0.00000000000E+00  0.0000E+00  9.0
       -1   -1    0    0    0  500  0.00000000000E+00  0.00000000000E+00 -3.27733293740E+02  3.27733293740E+02  0.00000000000E+00  0.0000E+00  9.0
       13    1    1    2    0    0  1.74868415350E+02 -4.66936353890E+02  2.60452990010E+02  5.62533814494E+02  1.05700000000E-01  0.0000E+00  9.0
      -13    1    1    2    0    0 -1.74868415350E+02  4.66936353890E+02  1.75059450470E+02  5.28445213473E+02  1.05700000000E-01  0.0000E+00  9.0
</event>
<event>
 4    1   7.6478753E-02   9.9600000E+02  -1.0000000E+00   9.4140000E-02
        1   -1    0    0  500    0  0.00000000000E+00  0.00000000000E+00  5.80423632220E+02  5.80423632220E+02  0.00000000000E+00  0.0000E+00  9.0
       -1   -1    0    0    0  500  0.00000000000E+00  0.00000000000E+00 -4.27246325650E+02  4.27246325650E+02  0.00000000000E+00  0.0000E+00  9.0
       13    1    1    2    0    0 -3.95120888320E+02 -3.00419725730E+02  1.17201943920E+02  5.10008661520E+02  1.05700000000E-01  0.0000E+00  9.0
      -13    1    1    2    0    0  3.95120888320E+02  3.00419725730E+02  3.59753626500E+01  4.97661296350E+02  1.05700000000E-01  0.0000E+00  9.0
</event>
<event>
 4    1   7.6478753E-02   1.0080000E+03  -1.0000000E+00   9.4010000E-02
        2   -1    0    0  500    0  0.00000000000E+00  0.00000000000E+00  3.20449023210E+03  3.20449023210E+03  0.00000000000E+00  0.0000E+00  9.0
       -2   -1    0    0    0  500  0.00000000000E+00  0.00000000000E+00 -7.92860457800E+01  7.92860457800E+01  0.00000000000E+00  0.0000E+00  9.0
       13    1    1    2    0    0 -4.81297922390E+02  4.53649408750E+01  2.02745459110E+03  2.08429311713E+03  1.05700000000E-01  0.0000E+00  9.0
      -13    1    1    2    0    0  4.81297922390E+02 -4.53649408750E+01  1.09774959520E+03  1.19948316074E+03  1.05700000000E-01  0.0000E+00  9.0
</event>
<event>
 4    1   7.6478753E-02   1.0050000E+03  -1.0000000E+00   9.4040000E-02
        1   -1    0    0  500    0  0.00000000000E+00  0.00000000000E+00  1.53761449950E+03  1.53761449950E+03  0.00000000000E+00  0.0000E+00  9.0
       -1   -1    0    0    0  500  0.00000000000E+00  0.00000000000E+00 -1.64185990200E+02  1.64185990200E+02  0.00000000000E+00  0.0000E+00  9.0
       13    1    1    2    0    0 -1.42763277750E+02 -1.07667159010E+02 -1.08478889730E+02  2.09144092178E+02  1.05700000000E-01  0.0000E+00  9.0
      -13    1    1    2    0    0  1.42763277750E+02  1.07667159010E+02  1.48190739910E+03  1.49265639760E+03  1.05700000000E-01  0.0000E+00  9.0
</event>
<event>
 4    1   7.6478753E-02   1.0030000E+03  -1.0000000E+00   9.4060000E-02
       -2   -1    0    0    0  500  0.00000000000E+00  0.00000000000E+00  3.75976024970E+02  3.75976024970E+02  0.00000000000E+00  0.0000E+00  9.0
        2   -1    0    0  500    0  0.00000000000E+00  0.00000000000E+00 -6.69339871830E+02  6.69339871830E+02  0.00000000000E+00  0.0000E+00  9.0
       13    1    1    2    0    0 -3.59958512690E+02  3.23554390160E+02 -9.25691181550E+00  4.84090152594E+02  1.05700000000E-01  0.0000E+00  9.0
      -13    1    1    2    0    0  3.59958512690E+02 -3.23554390160E+02 -2.84106935040E+02  5.61225744206E+02  1.05700000000E-01  0.0000E+00  9.0
</event>
<event>
 4    1   7.6478753E-02   1.0250000E+03  -1.0000000E+00   9.3830000E-02
       -1   -1    0    0    0  500  0.00000000000E+00  0.00000000000E+00  8.14723290380E+01  8.14723290380E+01  0.00000000000E+00  0.0000E+00  9.0
        1   -1    0    0  500    0  0.00000000000E+00  0.00000000000E+00 -3.22335150390E+03  3.22335150390E+03  0.00000000000E+00  0.0000E+00  9.0
       13    1    1    2    0    0 -6.35140250360E+01  3.71441070500E+02 -2.69077365450E+03  2.71703245677E+03  1.05700000000E-01  0.0000E+00  9.0
      -13    1    1    2    0    0  6.35140250360E+01 -3.71441070500E+02 -4.51105520390E+02  5.87791376195E+02  1.05700000000E-01  0.0000E+00  9.0
</event>
<event>
 4    1   7.6478753E-02   1.0010000E+03  -1.0000000E+00   9.4090000E-02
       -2   -1    0    0    0  500  0.00000000000E+00  0.00000000000E+00  1.45780339380E+02  1.45780339380E+02  0.00000000000E+00  0.0000E+00  9.0
        2   -1    0    0  500    0  0.00000000000E+00  0.00000000000E+00 -1.71722303190E+03  1.71722303190E+03  0.00000000000E+00  0.0000E+00  9.0
       13    1    1    2    0    0  1.24638234950E+02  4.29161142290E+01 -1.68431282790E+03  1.68946328633E+03  1.05700000000E-01  0.0000E+00  9.0
      -13    1    1    2    0    0 -1.24638234950E+02 -4.29161142290E+01  1.12870135340E+02  1.73540084984E+02  1.05700000000E-01  0.0000E+00  9.0
</event>
<event>
 4    1   7.6478753E-02   9.9290000E+02  -1.0000000E+00   9.4170000E-02
        1   -1    0    0  500    0  0.00000000000E+00  0.00000000000E+00  4.93574237380E+02  4.93574237380E+02  0.00000000000E+00  0.0000E+00  9.0
       -1   -1    0    0    0  500  0.00000000000E+00  0.00000000000E+00 -4.99375119320E+02  4.99375119320E+02  0.00000000000E+00  0.0000E+00  9.0
       13    1    1    2    0    0  4.45112211110E+02  1.76235977020E+02 -1.34411933720E+02  4.97242978004E+02  1.05700000000E-01  0.0000E+00  9.0
      -13    1    1    2    0    0 -4.45112211110E+02 -1.76235977020E+02  1.28611051770E+02  4.95706378701E+02  1.05700000000E-01  0.0000E+00  9.0
</event>
<event>
 4    1   7.6478753E-02   9.9650000E+02  -1.0000000E+00   9.4140000E-02
        3   -1    0    0  500    0  0.00000000000E+00  0.00000000000E+00  5.46117668510E+02  5.46117705132E+02  2.00000000000E-01  0.0000E+00  9.0
       -3   -1    0    0    0  500  0.00000000000E+00  0.00000000000E+00 -4.54599270590E+02  4.54599314585E+02  2.00000000000E-01  0.0000E+00  9.0
       13    1    1    2    0    0 -3.97571587410E+01 -2.23113506740E+02 -3.99847329130E+02  4.59606534272E+02  1.05700000000E-01  0.0000E+00  9.0
      -13    1    1    2    0    0  3.97571587410E+01  2.23113506740E+02  4.91365727050E+02  5.41110485440E+02  1.05700000000E-01  0.0000E+00  9.0
</event>
<event>
 4    1   7.6478753E-02   9.9800000E+02  -1.0000000E+00   9.4120000E-02
        1   -1    0    0  500    0  0.00000000000E+00  0.00000000000E+00  5.93712324890E+02  5.93712324890E+02  0.00000000000E+00  0.0000E+00  9.0
       -1   -1    0    0    0  500  0.00000000000E+00  0.00000000000E+00 -4.19382570130E+02  4.19382570130E+02  0.00000000000E+00  0.0000E+00  9.0
       13    1    1    2    0    0 -3.67692218360E+02 -1.47145730580E+02 -2.20982483360E+02  4.53522549158E+02  1.05700000000E-01  0.0000E+00  9.0
      -13    1    1    2    0    0  3.67692218360E+02  1.47145730580E+02  3.95312238120E+02  5.59572345859E+02  1.05700000000E-01  0.0000E+00  9.0
</event>
<event>
 4    1   7.6478753E-02   1.0040000E+03  -1.0000000E+00   9.4050000E-02
       -1   -1    0    0    0  500  0.00000000000E+00  0.00000000000E+00  1.14616787050E+02  1.14616787050E+02  0.00000000000E+00  0.0000E+00  9.0
        1   -1    0    0  500    0  0.00000000000E+00  0.00000000000E+00 -2.19876706770E+03  2.19876706770E+03  0.00000000000E+00  0.0000E+00  9.0
       13    1    1    2    0    0 -1.51539749720E+02 -3.34287862780E+02 -2.52927219910E+02  4.45740799895E+02  1.05700000000E-01  0.0000E+00  9.0
      -13    1    1    2    0    0  1.51539749720E+02  3.34287862780E+02 -1.83122306070E+03  1.86764305480E+03  1.05700000000E-01  0.0000E+00  9.0
</event>
<event>
 4    1   7.6478753E-02   9.9710000E+02  -1.0000000E+00   9.4130000E-02
       -1   -1    0    0    0  500  0.00000000000E+00  0.00000000000E+00  6.07292827670E+02  6.07292827670E+02  0.00000000000E+00  0.0000E+00  9.0
        1   -1    0    0  500    0  0.00000000000E+00  0.00000000000E+00 -4.09248525220E+02  4.09248525220E+02  0.00000000000E+00  0.0000E+00  9.0
       13    1    1    2    0    0 -1.62506774550E+02  4.27904381510E+02  3.00423855710E+02  5.47508096508E+02  1.05700000000E-01  0.0000E+00  9.0
      -13    1    1    2    0    0  1.62506774550E+02 -4.27904381510E+02 -1.02379553250E+02  4.69033256376E+02  1.05700000000E-01  0.0000E+00  9.0
</event>
<event>
 4    1   7.6478753E-02   9.9930000E+02  -1.0000000E+00   9.4110000E-02
       -1   -1    0    0    0  500  0.00000000000E+00  0.00000000000E+00  9.26034945740E+01  9.26034945740E+01  0.00000000000E+00  0.0000E+00  9.0
        1   -1    0    0  500    0  0.00000000000E+00  0.00000000000E+00 -2.69564243600E+03  2.69564243600E+03  0.00000000000E+00  0.0000E+00  9.0
       13    1    1    2    0    0 -6.08486438150E+01  4.22659519670E+02 -2.02529946320E+03  2.06982645500E+03  1.05700000000E-01  0.0000E+00  9.0
      -13    1    1    2    0    0  6.08486438150E+01 -4.22659519670E+02 -5.77739478270E+02  7.18419475617E+02  1.05700000000E-01  0.0000E+00  9.0
</event>
<event>
 4    1   7.6478753E-02   9.9850000E+02  -1.0000000E+00   9.4110000E-02
        1   -1    0    0  500    0  0.00000000000E+00  0.00000000000E+00  7.84105592510E+02  7.84105592510E+02  0.00000000000E+00  0.0000E+00  9.0
       -1   -1    0    0    0  500  0.00000000000E+00  0.00000000000E+00 -3.17872316220E+02  3.17872316220E+02  0.00000000000E+00  0.0000E+00  9.0
       13    1    1    2    0    0 -1.97809304140E+02  8.77677399360E+01 -2.63417682020E+02  3.40911401028E+02  1.05700000000E-01  0.0000E+00  9.0
      -13    1    1    2    0    0  1.97809304140E+02 -8.77677399360E+01  7.29650958320E+02  7.61066507690E+02  1.05700000000E-01  0.0000E+00  9.0
</event>
<event>
 4    1   7.6478753E-02   1.0030000E+03  -1.0000000E+00   9.4060000E-02
        2   -1    0    0  500    0  0.00000000000E+00  0.00000000000E+00  2.18779696790E+03  2.18779696790E+03  0.00000000000E+00  0.0000E+00  9.0
       -2   -1    0    0    0  500  0.00000000000E+00  0.00000000000E+00 -1.14970435150E+02  1.14970435150E+02  0.00000000000E+00  0.0000E+00  9.0
       13    1    1    2    0    0  3.76994611170E+02  9.98904747600E+01  3.12511175830E+02  4.99766235344E+02  1.05700000000E-01  0.0000E+00  9.0
      -13    1    1    2    0    0 -3.76994611170E+02 -9.98904747600E+01  1.76031535690E+03  1.80300116769E+03  1.05700000000E-01  0.0000E+00  9.0
</event>
<event>
 4    1   7.6478753E-02   2.0150000E+02  -1.0000000E+00   1.1530000E-01
        1   -1    0    0  500    0  0.00000000000E+00  0.00000000000E+00  1.90450860900E+03  1.90450860900E+03  0.00000000000E+00  0.0000E+00  9.0
       -1   -1    0    0    0  500  0.00000000000E+00  0.00000000000E+00 -5.33079402940E+00  5.33079402940E+00  0.00000000000E+00  0.0000E+00  9.0
       13    1    1    2    0    0  3.65724211560E+01 -8.23121495460E+01  5.21570368860E+02  5.29290556120E+02  1.05700000000E-01  0.0000E+00  9.0
      -13    1    1    2    0    0 -3.65724211560E+01  8.23121495460E+01  1.37760744610E+03  1.38054884690E+03  1.05700000000E-01  0.0000E+00  9.0
</event>
<event>
 4    1   7.6478753E-02   9.9860000E+02  -1.0000000E+00   9.4110000E-02
       -1   -1    0    0    0  500  0.00000000000E+00  0.00000000000E+00  3.84563999390E+02  3.84563999390E+02  0.00000000000E+00  0.0000E+00  9.0
        1   -1    0    0  500    0  0.00000000000E+00  0.00000000000E+00 -6.48314939300E+02  6.48314939300E+02  0.00000000000E+00  0.0000E+00  9.0
       13    1    1    2    0    0  1.13651371100E+02 -4.86206833000E+02 -1.34154697600E+02  5.17021481826E+02  1.05700000000E-01  0.0000E+00  9.0
      -13    1    1    2    0    0 -1.13651371100E+02  4.86206833000E+02 -1.29596242310E+02  5.15857456864E+02  1.05700000000E-01  0.0000E+00  9.0
</event>
<event>
 4    1   7.6478753E-02   9.9650000E+02  -1.0000000E+00   9.4140000E-02
       -2   -1    0    0    0  500  0.00000000000E+00  0.00000000000E+00  2.19194251870E+02  2.19194251870E+02  0.00000000000E+00  0.0000E+00  9.0
        2   -1    0    0  500    0  0.00000000000E+00  0.00000000000E+00 -1.13261027460E+03  1.13261027460E+03  0.00000000000E+00  0.0000E+00  9.0
       13    1    1    2    0    0  3.19091586720E+02 -7.11570886520E+01 -9.66768095200E+02  1.02055050490E+03  1.05700000000E-01  0.0000E+00  9.0
      -13    1    1    2    0    0 -3.19091586720E+02  7.11570886520E+01  5.33520724980E+01  3.31254021550E+02  1.05700000000E-01  0.0000E+00  9.0
</event>
<event>
 4    1   7.6478753E-02   1.0060000E+03  -1.0000000E+00   9.4040000E-02
       -1   -1    0    0    0  500  0.00000000000E+00  0.00000000000E+00  3.01589827210E+02  3.01589827210E+02  0.00000000000E+00  0.0000E+00  9.0
        1   -1    0    0  500    0  0.00000000000E+00  0.00000000000E+00 -8.38360013150E+02  8.38360013150E+02  0.00000000000E+00  0.0000E+00  9.0
       13    1    1    2    0    0  1.59786031650E+02  3.13318421290E+01 -8.07648392030E+02  8.23898778105E+02  1.05700000000E-01  0.0000E+00  9.0
      -13    1    1    2    0    0 -1.59786031650E+02 -3.13318421290E+01  2.70878206090E+02  3.16051062249E+02  1.05700000000E-01  0.0000E+00  9.0
</event>
<event>
 4    1   7.6478753E-02   1.0190000E+03  -1.0000000E+00   9.3890000E-02
       -1   -1    0    0    0  500  0.00000000000E+00  0.00000000000E+00  1.19244574170E+03  1.19244574170E+03  0.00000000000E+00  0.0000E+00  9.0
        1   -1    0    0  500    0  0.00000000000E+00  0.00000000000E+00 -2.17793798900E+02  2.17793798900E+02  0.00000000000E+00  0.0000E+00  9.0
       13    1    1    2    0    0  6.76398300540E+01 -1.08367881730E+02  1.16993319390E+03  1.17688675486E+03  1.05700000000E-01  0.0000E+00  9.0
      -13    1    1    2    0    0 -6.76398300540E+01  1.08367881730E+02 -1.95281251120E+02  2.33352785738E+02  1.05700000000E-01  0.0000E+00  9.0
</event>
<event>
 4    1   7.6478753E-02   9.9680000E+02  -1.0000000E+00   9.4130000E-02
        1   -1    0    0  500    0  0.00000000000E+00  0.00000000000E+00  2.54126870380E+02  2.54126870380E+02  0.00000000000E+00  0.0000E+00  9.0
       -1   -1    0    0    0  500  0.00000000000E+00  0.00000000000E+00 -9.77402974230E+02  9.77402974230E+02  0.00000000000E+00  0.0000E+00  9.0
       13    1    1    2    0    0  4.53764163480E+02 -1.08723060900E+02 -1.45290923830E+02  4.88704495324E+02  1.05700000000E-01  0.0000E+00  9.0
      -13    1    1    2    0    0 -4.53764163480E+02  1.08723060900E+02 -5.77985180020E+02  7.42825349275E+02  1.05700000000E-01  0.0000E+00  9.0
</event>
<event>
 4    1   7.6478753E-02   9.9470000E+02  -1.0000000E+00   9.4160000E-02
       -2   -1    0    0    0  500  0.00000000000E+00  0.00000000000E+00  2.25301703380E+02  2.25301703380E+02  0.00000000000E+00  0.0000E+00  9.0
        2   -1    0    0  500    0  0.00000000000E+00  0.00000000000E+00 -1.09784228190E+03  1.09784228190E+03  0.00000000000E+00  0.0000E+00  9.0
       13    1    1    2    0    0 -4.43616583740E+02  1.96987723480E+02 -2.92102634840E+02  5.66501365421E+02  1.05700000000E-01  0.0000E+00  9.0
      -13    1    1    2    0    0  4.43616583740E+02 -1.96987723480E+02 -5.80437943720E+02  7.56642619903E+02  1.05700000000E-01  0.0000E+00  9.0
</event>
<event>
 4    1   7.6478753E-02   9.9920000E+02  -1.0000000E+00   9.4110000E-02
        2   -1    0    0  500    0  0.00000000000E+00  0.00000000000E+00  1.29505122510E+03  1.29505122510E+03  0.00000000000E+00  0.0000E+00  9.0
       -2   -1    0    0    0  500  0.00000000000E+00  0.00000000000E+00 -1.92739939440E+02  1.92739939440E+02  0.00000000000E+00  0.0000E+00  9.0
       13    1    1    2    0    0  4.02182257000E+02  1.90509165230E+02  2.13047995630E+02  4.93390078434E+02  1.05700000000E-01  0.0000E+00  9.0
      -13    1    1    2    0    0 -4.02182257000E+02 -1.90509165230E+02  8.89263289990E+02  9.94401086071E+02  1.05700000000E-01  0.0000E+00  9.0
</event>
<event>
 4    1   7.6478753E-02   9.9900000E+02  -1.0000000E+00   9.4110000E-02
       -1   -1    0    0    0  500  0.00000000000E+00  0.00000000000E+00  1.99686029740E+02  1.99686029740E+02  0.00000000000E+00  0.0000E+00  9.0
        1   -1    0    0  500    0  0.00000000000E+00  0.00000000000E+00 -1.24936150890E+03  1.24936150890E+03  0.00000000000E+00  0.0000E+00  9.0
       13    1    1    2    0    0  4.81824118300E+02 -5.35301011000E+01 -3.50408207060E+02  5.98168768365E+02  1.05700000000E-01  0.0000E+00  9.0
      -13    1    1    2    0    0 -4.81824118300E+02  5.35301011000E+01 -6.99267272140E+02  8.50878770306E+02  1.05700000000E-01  0.0000E+00  9.0
</event>
<event>
 4    1   7.6478753E-02   1.0010000E+03  -1.0000000E+00   9.4090000E-02
        2   -1    0    0  500    0  0.00000000000E+00  0.00000000000E+00  5.03933504950E+02  5.03933504950E+02  0.00000000000E+00  0.0000E+00  9.0
       -2   -1    0    0    0  500  0.00000000000E+00  0.00000000000E+00 -4.97025814430E+02  4.97025814430E+02  0.00000000000E+00  0.0000E+00  9.0
       13    1    1    2    0    0  2.46914501700E+02 -1.28478532750E+02  4.19389758870E+02  5.03350062625E+02  1.05700000000E-01  0.0000E+00  9.0
      -13    1    1    2    0    0 -2.46914501700E+02  1.28478532750E+02 -4.12482068350E+02  4.97609256757E+02  1.05700000000E-01  0.0000E+00  9.0
</event>
<event>
 4    1   7.6478753E-02   1.0190000E+03  -1.0000000E+00   9.3900000E-02
        2   -1    0    0  500    0  0.00000000000E+00  0.00000000000E+00  1.65267661380E+03  1.65267661380E+03  0.00000000000E+00  0.0000E+00  9.0
       -2   -1    0    0    0  500  0.00000000000E+00  0.00000000000E+00 -1.56964929680E+02  1.56964929680E+02  0.00000000000E+00  0.0000E+00  9.0
       13    1    1    2    0    0  4.77486987160E+02  1.30905991810E+02  9.60162037300E+02  1.08029688079E+03  1.05700000000E-01  0.0000E+00  9.0
      -13    1    1    2    0    0 -4.77486987160E+02 -1.30905991810E+02  5.35549646780E+02  7.29344662651E+02  1.05700000000E-01  0.0000E+00  9.0
</event>
<event>
 4    1   7.6478753E-02   1.0030000E+03  -1.0000000E+00   9.4070000E-02
        1   -1    0    0  500    0  0.00000000000E+00  0.00000000000E+00  2.05749889410E+03  2.05749889410E+03  0.00000000000E+00  0.0000E+00  9.0
       -1   -1    0    0    0  500  0.00000000000E+00  0.00000000000E+00 -1.22205285540E+02  1.22205285540E+02  0.00000000000E+00  0.0000E+00  9.0
       13    1    1    2    0    0  1.05724350700E+02  4.88931690380E+01 -9.23919146490E+01  1.48675678490E+02  1.05700000000E-01  0.0000E+00  9.0
      -13    1    1    2    0    0 -1.05724350700E+02 -4.88931690380E+01  2.02768552320E+03  2.03102850115E+03  1.05700000000E-01  0.0000E+00  9.0
</event>
<event>
 4    1   7.6478753E-02   1.0000000E+03  -1.0000000E+00   9.4100000E-02
        1   -1    0    0  500    0  0.00000000000E+00  0.00000000000E+00  1.84774149770E+03  1.84774149770E+03  0.00000000000E+00  0.0000E+00  9.0
       -1   -1    0    0    0  500  0.00000000000E+00  0.00000000000E+00 -1.35363751630E+02  1.35363751630E+02  0.00000000000E+00  0.0000E+00  9.0
       13    1    1    2    0    0  1.69615856280E+02  4.32803622880E+02  1.22192395450E+03  1.30735866404E+03  1.05700000000E-01  0.0000E+00  9.0
      -13    1    1    2    0    0 -1.69615856280E+02 -4.32803622880E+02  4.90453791500E+02  6.75746585229E+02  1.05700000000E-01  0.0000E+00  9.0
</event>
<event>
 4    1   7.6478753E-02   1.0030000E+03  -1.0000000E+00   9.4070000E-02
        2   -1    0    0  500    0  0.00000000000E+00  0.00000000000E+00  2.59675393370E+03  2.59675393370E+03  0.00000000000E+00  0.0000E+00  9.0
       -2   -1    0    0    0  500  0.00000000000E+00  0.00000000000E+00 -9.68208752200E+01  9.68208752200E+01  0.00000000000E+00  0.0000E+00  9.0
       13    1    1    2    0    0  2.94969575140E+02  2.11514808660E+00  2.33905012550E+03  2.35757651517E+03  1.05700000000E-01  0.0000E+00  9.0
      -13    1    1    2    0    0 -2.94969575140E+02 -2.11514808660E+00  1.60882932980E+02  3.35998293755E+02  1.05700000000E-01  0.0000E+00  9.0
</event>
<event>
 4    1   7.6478753E-02   9.9760000E+02  -1.0000000E+00   9.4120000E-02
       -1   -1    0    0    0  500  0.00000000000E+00  0.00000000000E+00  4.06630813660E+02  4.06630813660E+02  0.00000000000E+00  0.0000E+00  9.0
        1   -1    0    0  500    0  0.00000000000E+00  0.00000000000E+00 -6.11889381070E+02  6.11889381070E+02  0.00000000000E+00  0.0000E+00  9.0
       13    1    1    2    0    0 -1.40562894570E+01  2.93833917200E+02  3.08645125890E+02  4.26377503016E+02  1.05700000000E-01  0.0000E+00  9.0
      -13    1    1    2    0    0  1.40562894570E+01 -2.93833917200E+02 -5.13903693310E+02  5.92142691706E+02  1.05700000000E-01  0.0000E+00  9.0
</event>
<event>
 4    1   7.6478753E-02   9.9980000E+02  -1.0000000E+00   9.4100000E-02
        1   -1    0    0  500    0  0.00000000000E+00  0.00000000000E+00  4.50186560710E+02  4.50186560710E+02  0.00000000000E+00  0.0000E+00  9.0
       -1   -1    0    0    0  500  0.00000000000E+00  0.00000000000E+00 -5.55096169350E+02  5.55096169350E+02  0.00000000000E+00  0.0000E+00  9.0
       13    1    1    2    0    0  4.90617380070E+02  9.46048540580E+01 -3.68346462840E+01  5.01011271707E+02  1.05700000000E-01  0.0000E+00  9.0
      -13    1    1    2    0    0 -4.90617380070E+02 -9.46048540580E+01 -6.80749623640E+01  5.04271458355E+02  1.05700000000E-01  0.0000E+00  9.0
</event>
<event>
 4    1   7.6478753E-02   9.9790000E+02  -1.0000000E+00   9.4120000E-02
        1   -1    0    0  500    0  0.00000000000E+00  0.00000000000E+00  5.73982145090E+02  5.73982145090E+02  0.00000000000E+00  0.0000E+00  9.0
       -1   -1    0    0    0  500  0.00000000000E+00  0.00000000000E+00 -4.33683263280E+02  4.33683263280E+02  0.00000000000E+00  0.0000E+00  9.0
       13    1    1    2    0    0 -2.45064249620E+02 -3.21589571800E+02  3.65343163730E+02  5.44933002844E+02  1.05700000000E-01  0.0000E+00  9.0
      -13    1    1    2    0    0  2.45064249620E+02  3.21589571800E+02 -2.25044281910E+02  4.62732405527E+02  1.05700000000E-01  0.0000E+00  9.0
</event>
<event>
 4    1   7.6478753E-02   9.9570000E+02  -1.0000000E+00   9.4140000E-02
        1   -1    0    0  500    0  0.00000000000E+00  0.00000000000E+00  4.47347117800E+02  4.47347117800E+02  0.00000000000E+00  0.0000E+00  9.0
       -1   -1    0    0    0  500  0.00000000000E+00  0.00000000000E+00 -5.54004845030E+02  5.54004845030E+02  0.00000000000E+00  0.0000E+00  9.0
       13    1    1    2    0    0  2.79068235230E+02  7.63460016380E+00 -4.67870418130E+02  5.44830346409E+02  1.05700000000E-01  0.0000E+00  9.0
      -13    1    1    2    0    0 -2.79068235230E+02 -7.63460016380E+00  3.61212690900E+02  4.56521616436E+02  1.05700000000E-01  0.0000E+00  9.0
</event>
<event>
 4    1   7.6478753E-02   9.9720000E+02  -1.0000000E+00   9.4130000E-02
        3   -1    0    0  500    0  0.00000000000E+00  0.00000000000E+00  1.43912935020E+03  1.43912936410E+03  2.00000000000E-01  0.0000E+00  9.0
       -3   -1    0    0    0  500  0.00000000000E+00  0.00000000000E+00 -1.72729684000E+02  1.72729799788E+02  2.00000000000E-01  0.0000E+00  9.0
       13    1    1    2    0    0  4.83161564770E+02 -5.37336531920E+01  8.12094355170E+02  9.46482781686E+02  1.05700000000E-01  0.0000E+00  9.0
      -13    1    1    2    0    0 -4.83161564770E+02  5.37336531920E+01  4.54305310990E+02  6.65376382150E+02  1.05700000000E-01  0.0000E+00  9.0
</event>
<event>
 4    1   7.6478753E-02   1.0010000E+03  -1.0000000E+00   9.4090000E-02
       -1   -1    0    0    0  500  0.00000000000E+00  0.00000000000E+00  5.18560811200E+02  5.18560811200E+02  0.00000000000E+00  0.0000E+00  9.0
        1   -1    0    0  500    0  0.00000000000E+00  0.00000000000E+00 -4.82623962210E+02  4.82623962210E+02  0.00000000000E+00  0.0000E+00  9.0
       13    1    1    2    0    0  2.21774905310E+02  4.48350908870E+02  2.61722514950E+01  5.00886857514E+02  1.05700000000E-01  0.0000E+00  9.0
      -13    1    1    2    0    0 -2.21774905310E+02 -4.48350908870E+02  9.76459749650E+00  5.00297915893E+02  1.05700000000E-01  0.0000E+00  9.0
</event>
<event>
 4    1   7.6478753E-02   1.0000000E+03  -1.0000000E+00   9.4090000E-02
       -1   -1    0    0    0  500  0.00000000000E+00  0.00000000000E+00  7.61903313540E+02  7.61903313540E+02  0.00000000000E+00  0.0000E+00  9.0
        1   -1    0    0  500    0  0.00000000000E+00  0.00000000000E+00 -3.28429429990E+02  3.28429429990E+02  0.00000000000E+00  0.0000E+00  9.0
       13    1    1    2    0    0 -2.21654821930E+02  4.36626224330E+02  3.28188288010E+02  5.89475091430E+02  1.05700000000E-01  0.0000E+00  9.0
      -13    1    1    2    0    0  2.21654821930E+02 -4.36626224330E+02  1.05285595530E+02  5.00857652089E+02  1.05700000000E-01  0.0000E+00  9.0
</event>
<event>
 4    1   7.6478753E-02   9.9020000E+02  -1.0000000E+00   9.4200000E-02
       -1   -1    0    0    0  500  0.00000000000E+00  0.00000000000E+00  2.60763202950E+02  2.60763202950E+02  0.00000000000E+00  0.0000E+00  9.0
        1   -1    0    0  500    0  0.00000000000E+00  0.00000000000E+00 -9.40096797570E+02  9.40096797570E+02  0.00000000000E+00  0.0000E+00  9.0
       13    1    1    2    0    0 -2.10357628060E+02  2.77934079900E+02 -7.66090312880E+02  8.41660301496E+02  1.05700000000E-01  0.0000E+00  9.0
      -13    1    1    2    0    0  2.10357628060E+02 -2.77934079900E+02  8.67567182570E+01  3.59199699037E+02  1.05700000000E-01  0.0000E+00  9.0
</event>
<event>
 4    1   7.6478753E-02   9.9900000E+02  -1.0000000E+00   9.4110000E-02
       -2   -1    0    0    0  500  0.00000000000E+00  0.00000000000E+00  1.84930593490E+02  1.84930593490E+02  0.00000000000E+00  0.0000E+00  9.0
        2   -1    0    0  500    0  0.00000000000E+00  0.00000000000E+00 -1.34916118940E+03  1.34916118940E+03  0.00000000000E+00  0.0000E+00  9.0
       13    1    1    2    0    0 -1.62295723900E+02  4.61891450070E+02 -7.34270466810E+02  8.82517276457E+02  1.05700000000E-01  0.0000E+00  9.0
      -13    1    1    2    0    0  1.62295723900E+02 -4.61891450070E+02 -4.29960129120E+02  6.51574506445E+02  1.05700000000E-01  0.0000E+00  9.0
</event>
<event>
 4    1   7.6478753E-02   1.0310000E+03  -1.0000000E+00   9.3770000E-02
        1   -1    0    0  500    0  0.00000000000E+00  0.00000000000E+00  1.99550772620E+03  1.99550772620E+03  0.00000000000E+00  0.0000E+00  9.0
       -1   -1    0    0    0  500  0.00000000000E+00  0.00000000000E+00 -1.33091403830E+02  1.33091403830E+02  0.00000000000E+00  0.0000E+00  9.0
       13    1    1    2    0    0  1.00990052360E+02 -4.38788602480E+02  4.13462471600E+02  6.11298335460E+02  1.05700000000E-01  0.0000E+00  9.0
      -13    1    1    2    0    0 -1.00990052360E+02  4.38788602480E+02  1.44895385070E+03  1.51730079449E+03  1.05700000000E-01  0.0000E+00  9.0
</event>
<event>
 4    1   7.6478753E-02   9.9460000E+02  -1.0000000E+00   9.4160000E-02
       -1   -1    0    0    0  500  0.00000000000E+00  0.00000000000E+00  8.17223273300E+02  8.17223273300E+02  0.00000000000E+00  0.0000E+00  9.0
        1   -1    0    0  500    0  0.00000000000E+00  0.00000000000E+00 -3.02648635210E+02  3.02648635210E+02  0.00000000000E+00  0.0000E+00  9.0
       13    1    1    2    0    0 -2.14883519700E+02  4.44753631740E+02  3.22460873320E+02  5.89882823940E+02  1.05700000000E-01  0.0000E+00  9.0
      -13    1    1    2    0    0  2.14883519700E+02 -4.44753631740E+02  1.92113764770E+02  5.29989084577E+02  1.05700000000E-01  0.0000E+00  9.0
</event>
<event>
 4    1   7.6478753E-02   1.0120000E+03  -1.0000000E+00   9.3970000E-02
        1   -1    0    0  500    0  0.00000000000E+00  0.00000000000E+00  1.03211371740E+03  1.03211371740E+03  0.00000000000E+00  0.0000E+00  9.0
       -1   -1    0    0    0  500  0.00000000000E+00  0.00000000000E+00 -2.48157880340E+02  2.48157880340E+02  0.00000000000E+00  0.0000E+00  9.0
       13    1    1    2    0    0 -3.00712603010E+02 -2.24619851740E+02  8.21371293250E+02  9.03068635239E+02  1.05700000000E-01  0.0000E+00  9.0
      -13    1    1    2    0    0  3.00712603010E+02  2.24619851740E+02 -3.74154561740E+01  3.77202962525E+02  1.05700000000E-01  0.0000E+00  9.0
</event>
<event>
 4    1   7.6478753E-02   9.9640000E+02  -1.0000000E+00   9.4140000E-02
        1   -1    0    0  500    0  0.00000000000E+00  0.00000000000E+00  6.04586516930E+02  6.04586516930E+02  0.00000000000E+00  0.0000E+00  9.0
       -1   -1    0    0    0  500  0.00000000000E+00  0.00000000000E+00 -4.10503432420E+02  4.10503432420E+02  0.00000000000E+00  0.0000E+00  9.0
       13    1    1    2    0    0 -3.74595579200E+02  1.17643924560E+01 -2.37341552030E+02  4.43611623358E+02  1.05700000000E-01  0.0000E+00  9.0
      -13    1    1    2    0    0  3.74595579200E+02 -1.17643924560E+01  4.31424636540E+02  5.71478325986E+02  1.05700000000E-01  0.0000E+00  9.0
</event>
<event>
 4    1   7.6478753E-02   1.0100000E+03  -1.0000000E+00   9.3990000E-02
        1   -1    0    0  500    0  0.00000000000E+00  0.00000000000E+00  4.25253546460E+02  4.25253546460E+02  0.00000000000E+00  0.0000E+00  9.0
       -1   -1    0    0    0  500  0.00000000000E+00  0.00000000000E+00 -5.99703398430E+02  5.99703398430E+02  0.00000000000E+00  0.0000E+00  9.0
       13    1    1    2    0    0 -4.45042158290E+02 -9.23202197580E+01 -3.10575688940E+02  5.50493247338E+02  1.05700000000E-01  0.0000E+00  9.0
      -13    1    1    2    0    0  4.45042158290E+02  9.23202197580E+01  1.36125836970E+02  4.74463697552E+02  1.05700000000E-01  0.0000E+00  9.0
</event>
<event>
 4    1   7.6478753E-02   9.9570000E+02  -1.0000000E+00   9.4140000E-02
        1   -1    0    0  500    0  0.00000000000E+00  0.00000000000E+00  1.16001252320E+03  1.16001252320E+03  0.00000000000E+00  0.0000E+00  9.0
       -1   -1    0    0    0  500  0.00000000000E+00  0.00000000000E+00 -2.13679994790E+02  2.13679994790E+02  0.00000000000E+00  0.0000E+00  9.0
       13    1    1    2    0    0 -4.75431379670E+02 -4.93551545770E+01  6.65321875360E+02  8.19221665402E+02  1.05700000000E-01  0.0000E+00  9.0
      -13    1    1    2    0    0  4.75431379670E+02  4.93551545770E+01  2.81010653050E+02  5.54470852578E+02  1.05700000000E-01  0.0000E+00  9.0
</event>
<event>
 4    1   7.6478753E-02   9.9570000E+02  -1.0000000E+00   9.4140000E-02
       -2   -1    0    0    0  500  0.00000000000E+00  0.00000000000E+00  8.49362300910E+01  8.49362300910E+01  0.00000000000E+00  0.0000E+00  9.0
        2   -1    0    0  500    0  0.00000000000E+00  0.00000000000E+00 -2.91784989040E+03  2.91784989040E+03  0.00000000000E+00  0.0000E+00  9.0
       13    1    1    2    0    0 -4.63971429680E+01 -4.07833107350E+02 -2.26601203220E+03  2.30288755252E+03  1.05700000000E-01  0.0000E+00  9.0
      -13    1    1    2    0    0  4.63971429680E+01  4.07833107350E+02 -5.66901628160E+02  6.99898568015E+02  1.05700000000E-01  0.0000E+00  9.0
</event>
<event>
 4    1   7.6478753E-02   1.0030000E+03  -1.0000000E+00   9.4060000E-02
        1   -1    0    0  500    0  0.00000000000E+00  0.00000000000E+00  4.78551159880E+02  4.78551159880E+02  0.00000000000E+00  0.0000E+00  9.0
       -1   -1    0    0    0  500  0.00000000000E+00  0.00000000000E+00 -5.25848909370E+02  5.25848909370E+02  0.00000000000E+00  0.0000E+00  9.0
       13    1    1    2    0    0  3.98483012220E+02 -1.44625540630E+02 -2.92163715970E+02  5.14844545598E+02  1.05700000000E-01  0.0000E+00  9.0
      -13    1    1    2    0    0 -3.98483012220E+02  1.44625540630E+02  2.44865966470E+02  4.89555523652E+02  1.05700000000E-01  0.0000E+00  9.0
</event>
<event>
 4    1   7.6478753E-02   1.0100000E+03  -1.0000000E+00   9.3990000E-02
       -1   -1    0    0    0  500  0.00000000000E+00  0.00000000000E+00  1.65759878850E+02  1.65759878850E+02  0.00000000000E+00  0.0000E+00  9.0
        1   -1    0    0  500    0  0.00000000000E+00  0.00000000000E+00 -1.53910167510E+03  1.53910167510E+03  0.00000000000E+00  0.0000E+00  9.0
       13    1    1    2    0    0 -3.81449315840E+02 -1.47432137080E+02 -1.18697543120E+03  1.25544832671E+03  1.05700000000E-01  0.0000E+00  9.0
      -13    1    1    2    0    0  3.81449315840E+02  1.47432137080E+02 -1.86366365020E+02  4.49413227200E+02  1.05700000000E-01  0.0000E+00  9.0
</event>
<event>
 4    1   7.6478753E-02   9.9930000E+02  -1.0000000E+00   9.4110000E-02
       -2   -1    0    0    0  500  0.00000000000E+00  0.00000000000E+00  2.96237686410E+02  2.96237686410E+02  0.00000000000E+00  0.0000E+00  9.0
        2   -1    0    0  500    0  0.00000000000E+00  0.00000000000E+00 -8.42669614130E+02  8.42669614130E+02  0.00000000000E+00  0.0000E+00  9.0
       13    1    1    2    0    0 -2.20888032020E+02 -2.79747836750E+02 -6.72258843190E+02  7.60908889602E+02  1.05700000000E-01  0.0000E+00  9.0
      -13    1    1    2    0    0  2.20888032020E+02  2.79747836750E+02  1.25826915460E+02  3.77998410953E+02  1.05700000000E-01  0.0000E+00  9.0
</event>
<event>
 4    1   7.6478753E-02   1.0010000E+03  -1.0000000E+00   9.4090000E-02
        2   -1    0    0  500    0  0.00000000000E+00  0.00000000000E+00  1.05688162330E+03  1.05688162330E+03  0.00000000000E+00  0.0000E+00  9.0
       -2   -1    0    0    0  500  0.00000000000E+00  0.00000000000E+00 -2.37081402490E+02  2.37081402490E+02  0.00000000000E+00  0.0000E+00  9.0
       13    1    1    2    0    0  4.89424440150E+02 -9.57270451140E+01  4.65747649400E+02  6.82364150492E+02  1.05700000000E-01  0.0000E+00  9.0
      -13    1    1    2    0    0 -4.89424440150E+02  9.57270451140E+01  3.54052571440E+02  6.11598875324E+02  1.05700000000E-01  0.0000E+00  9.0
</event>
<event>
 4    1   7.6478753E-02   9.9180000E+02  -1.0000000E+00   9.4190000E-02
        1   -1    0    0  500    0  0.00000000000E+00  0.00000000000E+00  1.45958162840E+03  1.45958162840E+03  0.00000000000E+00  0.0000E+00  9.0
       -1   -1    0    0    0  500  0.00000000000E+00  0.00000000000E+00 -1.68487867360E+02  1.68487867360E+02  0.00000000000E+00  0.0000E+00  9.0
       13    1    1    2    0    0  1.44069236230E+02 -2.74957552440E+02  1.07157197930E+01  3.10600126038E+02  1.05700000000E-01  0.0000E+00  9.0
      -13    1    1    2    0    0 -1.44069236230E+02  2.74957552440E+02  1.28037804120E+03  1.31746936967E+03  1.05700000000E-01  0.0000E+00  9.0
</event>
<event>
 4    1   7.6478753E-02   9.9940000E+02  -1.0000000E+00   9.4100000E-02
        1   -1    0    0  500    0  0.00000000000E+00  0.00000000000E+00  1.63054659610E+03  1.63054659610E+03  0.00000000000E+00  0.0000E+00  9.0
       -1   -1    0    0    0  500  0.00000000000E+00  0.00000000000E+00 -1.53153469800E+02  1.53153469800E+02  0.00000000000E+00  0.0000E+00  9.0
       13    1    1    2    0    0  1.05846794210E+02  1.26917794360E+02 -1.02971979980E+02  1.94717513858E+02  1.05700000000E-01  0.0000E+00  9.0
      -13    1    1    2    0    0 -1.05846794210E+02 -1.26917794360E+02  1.58036510630E+03  1.58898255206E+03  1.05700000000E-01  0.0000E+00  9.0
</event>
<event>
 4    1   7.6478753E-02   9.9970000E+02  -1.0000000E+00   9.4100000E-02
       -1   -1    0    0    0  500  0.00000000000E+00  0.00000000000E+00  1.57985319430E+02  1.57985319430E+02  0.00000000000E+00  0.0000E+00  9.0
        1   -1    0    0  500    0  0.00000000000E+00  0.00000000000E+00 -1.58152850450E+03  1.58152850450E+03  0.00000000000E+00  0.0000E+00  9.0
       13    1    1    2    0    0 -2.60588224970E+02  2.68506734980E+02 -1.35053910100E+02  3.97796002404E+02  1.05700000000E-01  0.0000E+00  9.0
      -13    1    1    2    0    0  2.60588224970E+02 -2.68506734980E+02 -1.28848927500E+03  1.34171782156E+03  1.05700000000E-01  0.0000E+00  9.0
</event>
<event>
 4    1   7.6478753E-02   1.0060000E+03  -1.0000000E+00   9.4040000E-02
        1   -1    0    0  500    0  0.00000000000E+00  0.00000000000E+00  3.50221982730E+02  3.50221982730E+02  0.00000000000E+00  0.0000E+00  9.0
       -1   -1    0    0    0  500  0.00000000000E+00  0.00000000000E+00 -7.22085569980E+02  7.22085569980E+02  0.00000000000E+00  0.0000E+00  9.0
       13    1    1    2    0    0 -3.87347071450E+02 -2.15678181090E+02 -4.38986265070E+02  6.23910076575E+02  1.05700000000E-01  0.0000E+00  9.0
      -13    1    1    2    0    0  3.87347071450E+02  2.15678181090E+02  6.71226778190E+01  4.48397476141E+02  1.05700000000E-01  0.0000E+00  9.0
</event>
<event>
 4    1   7.6478753E-02   9.9960000E+02  -1.0000000E+00   9.4100000E-02
        1   -1    0    0  500    0  0.00000000000E+00  0.00000000000E+00  1.96772818270E+02  1.96772818270E+02  0.00000000000E+00  0.0000E+00  9.0
       -1   -1    0    0    0  500  0.00000000000E+00  0.00000000000E+00 -1.26947132490E+03  1.26947132490E+03  0.00000000000E+00  0.0000E+00  9.0
       13    1    1    2    0    0 -1.87722630900E+02 -1.81116771710E+02 -1.16170151160E+03  1.19062734908E+03  1.05700000000E-01  0.0000E+00  9.0
      -13    1    1    2    0    0  1.87722630900E+02  1.81116771710E+02  8.90030049310E+01  2.75616794129E+02  1.05700000000E-01  0.0000E+00  9.0
</event>
<event>
 4    1   7.6478753E-02   9.9060000E+02  -1.0000000E+00   9.4200000E-02
       -1   -1    0    0    0  500  0.00000000000E+00  0.00000000000E+00  3.33035922170E+02  3.33035922170E+02  0.00000000000E+00  0.0000E+00  9.0
        1   -1    0    0  500    0  0.00000000000E+00  0.00000000000E+00 -7.36647622490E+02  7.36647622490E+02  0.00000000000E+00  0.0000E+00  9.0
       13    1    1    2    0    0  3.04250680850E+01 -3.95139035710E+01  3.30318025830E+02  3.34061435524E+02  1.05700000000E-01  0.0000E+00  9.0
      -13    1    1    2    0    0 -3.04250680850E+01  3.95139035710E+01 -7.33929726150E+02  7.35622109131E+02  1.05700000000E-01  0.0000E+00  9.0
</event>
<event>
 4    1   7.6478753E-02   1.0020000E+03  -1.0000000E+00   9.4070000E-02
        1   -1    0    0  500    0  0.00000000000E+00  0.00000000000E+00  9.60510345720E+02  9.60510345720E+02  0.00000000000E+00  0.0000E+00  9.0
       -1   -1    0    0    0  500  0.00000000000E+00  0.00000000000E+00 -2.61449163010E+02  2.61449163010E+02  0.00000000000E+00  0.0000E+00  9.0
       13    1    1    2    0    0 -1.41875270990E+02 -5.12367483800E+01  9.32173509020E+02  9.44299348191E+02  1.05700000000E-01  0.0000E+00  9.0
      -13    1    1    2    0    0  1.41875270990E+02  5.12367483800E+01 -2.33112326310E+02  2.77660160544E+02  1.05700000000E-01  0.0000E+00  9.0
</event>
<event>
 4    1   7.6478753E-02   9.3180000E+02  -1.0000000E+00   9.4870000E-02
        1   -1    0    0  500    0  0.00000000000E+00  0.00000000000E+00  2.48329336600E+03  2.48329336600E+03  0.00000000000E+00  0.0000E+00  9.0
       -1   -1    0    0    0  500  0.00000000000E+00  0.00000000000E+00 -8.74004818190E+01  8.74004818190E+01  0.00000000000E+00  0.0000E+00  9.0
       13    1    1    2    0    0  9.07400373620E+01  3.96673499970E+02  1.82380094000E+03  1.86864482978E+03  1.05700000000E-01  0.0000E+00  9.0
      -13    1    1    2    0    0 -9.07400373620E+01 -3.96673499970E+02  5.72091944210E+02  7.02049018062E+02  1.05700000000E-01  0.0000E+00  9.0
</event>
<event>
 4    1   7.6478753E-02   1.0030000E+03  -1.0000000E+00   9.4070000E-02
        1   -1    0    0  500    0  0.00000000000E+00  0.00000000000E+00  4.61396807150E+02  4.61396807150E+02  0.00000000000E+00  0.0000E+00  9.0
       -1   -1    0    0    0  500  0.00000000000E+00  0.00000000000E+00 -5.44672728800E+02  5.44672728800E+02  0.00000000000E+00  0.0000E+00  9.0
       13    1    1    2    0    0 -2.01794013050E+02  3.00680806160E+02  3.06226334150E+02  4.74240814139E+02  1.05700000000E-01  0.0000E+00  9.0
      -13    1    1    2    0    0  2.01794013050E+02 -3.00680806160E+02 -3.89502255800E+02  5.31828721810E+02  1.05700000000E-01  0.0000E+00  9.0
</event>
<event>
 4    1   7.6478753E-02   9.9480000E+02  -1.0000000E+00   9.4150000E-02
        1   -1    0    0  500    0  0.00000000000E+00  0.00000000000E+00  1.22815199800E+03  1.22815199800E+03  0.00000000000E+00  0.0000E+00  9.0
       -1   -1    0    0    0  500  0.00000000000E+00  0.00000000000E+00 -2.01446613010E+02  2.01446613010E+02  0.00000000000E+00  0.0000E+00  9.0
       13    1    1    2    0    0 -2.67435760120E+02  1.44865171610E+02 -5.22386178050E+01  3.08604420090E+02  1.05700000000E-01  0.0000E+00  9.0
      -13    1    1    2    0    0  2.67435760120E+02 -1.44865171610E+02  1.07894400280E+03  1.12099419092E+03  1.05700000000E-01  0.0000E+00  9.0
</event>
<event>
 4    1   7.6478753E-02   9.9980000E+02  -1.0000000E+00   9.4100000E-02
       -1   -1    0    0    0  500  0.00000000000E+00  0.00000000000E+00  3.29046764530E+02  3.29046764530E+02  0.00000000000E+00  0.0000E+00  9.0
        1   -1    0    0  500    0  0.00000000000E+00  0.00000000000E+00 -7.59539876270E+02  7.59539876270E+02  0.00000000000E+00  0.0000E+00  9.0
       13    1    1    2    0    0 -1.24508608030E+02  3.44032071580E+02 -5.86163820290E+02  6.90976479440E+02  1.05700000000E-01  0.0000E+00  9.0
      -13    1    1    2    0    0  1.24508608030E+02 -3.44032071580E+02  1.55670708550E+02  3.97610161367E+02  1.05700000000E-01  0.0000E+00  9.0
</event>
<event>
 4    1   7.6478753E-02   1.0010000E+03  -1.0000000E+00   9.4090000E-02
       -1   -1    0    0    0  500  0.00000000000E+00  0.00000000000E+00  1.20771692360E+02  1.20771692360E+02  0.00000000000E+00  0.0000E+00  9.0
        1   -1    0    0  500    0  0.00000000000E+00  0.00000000000E+00 -2.07464684040E+03  2.07464684040E+03  0.00000000000E+00  0.0000E+00  9.0
       13    1    1    2    0    0  2.65008509030E+02  3.92000785750E+02 -6.18841824310E+02  7.79011771782E+02  1.05700000000E-01  0.0000E+00  9.0
      -13    1    1    2    0    0 -2.65008509030E+02 -3.92000785750E+02 -1.33503332380E+03  1.41640676104E+03  1.05700000000E-01  0.0000E+00  9.0
</event>
<event>
 4    1   7.6478753E-02   9.9550000E+02  -1.0000000E+00   9.4150000E-02
        3   -1    0    0  500    0  0.00000000000E+00  0.00000000000E+00  1.39199186740E+02  1.39199330419E+02  2.00000000000E-01  0.0000E+00  9.0
       -3   -1    0    0    0  500  0.00000000000E+00  0.00000000000E+00 -1.77987698250E+03  1.77987699374E+03  2.00000000000E-01  0.0000E+00  9.0
       13    1    1    2    0    0  2.44084132240E+02 -3.21926119110E+02 -2.59819856460E+02  4.80333070650E+02  1.05700000000E-01  0.0000E+00  9.0
      -13    1    1    2    0    0 -2.44084132240E+02  3.21926119110E+02 -1.38085793930E+03  1.43874325349E+03  1.05700000000E-01  0.0000E+00  9.0
</event>
<event>
 4    1   7.6478753E-02   9.9850000E+02  -1.0000000E+00   9.4110000E-02
        1   -1    0    0  500    0  0.00000000000E+00  0.00000000000E+00  1.07465442720E+03  1.07465442720E+03  0.00000000000E+00  0.0000E+00  9.0
       -1   -1    0    0    0  500  0.00000000000E+00  0.00000000000E+00 -2.31941944100E+02  2.31941944100E+02  0.00000000000E+00  0.0000E+00  9.0
       13    1    1    2    0    0  3.13808253150E+02 -8.92966803810E+01  9.15853080440E+02  9.72232684596E+02  1.05700000000E-01  0.0000E+00  9.0
      -13    1    1    2    0    0 -3.13808253150E+02  8.92966803810E+01 -7.31405972910E+01  3.34363686749E+02  1.05700000000E-01  0.0000E+00  9.0
</event>
<event>
 4    1   7.6478753E-02   1.0050000E+03  -1.0000000E+00   9.4050000E-02
        1   -1    0    0  500    0  0.00000000000E+00  0.00000000000E+00  8.50389563670E+02  8.50389563670E+02  0.00000000000E+00  0.0000E+00  9.0
       -1   -1    0    0    0  500  0.00000000000E+00  0.00000000000E+00 -2.96750795640E+02  2.96750795640E+02  0.00000000000E+00  0.0000E+00  9.0
       13    1    1    2    0    0 -3.69165226790E+02 -1.37885816290E+02  6.32530968720E+02  7.45245530391E+02  1.05700000000E-01  0.0000E+00  9.0
      -13    1    1    2    0    0  3.69165226790E+02  1.37885816290E+02 -7.88922006970E+01  4.01894828914E+02  1.05700000000E-01  0.0000E+00  9.0
</event>
<event>
 4    1   7.6478753E-02   9.9960000E+02  -1.0000000E+00   9.4100000E-02
        1   -1    0    0  500    0  0.00000000000E+00  0.00000000000E+00  3.11538723090E+03  3.11538723090E+03  0.00000000000E+00  0.0000E+00  9.0
       -1   -1    0    0    0  500  0.00000000000E+00  0.00000000000E+00 -8.01809906060E+01  8.01809906060E+01  0.00000000000E+00  0.0000E+00  9.0
       13    1    1    2    0    0 -3.29661206500E+02  2.59696531290E+02  6.49863433010E+02  7.73589873364E+02  1.05700000000E-01  0.0000E+00  9.0
      -13    1    1    2    0    0  3.29661206500E+02 -2.59696531290E+02  2.38534280730E+03  2.42197834816E+03  1.05700000000E-01  0.0000E+00  9.0
</event>
<event>
 4    1   7.6478753E-02   9.7220000E+02  -1.0000000E+00   9.4400000E-02
        1   -1    0    0  500    0  0.00000000000E+00  0.00000000000E+00  9.53829855360E+02  9.53829855360E+02  0.00000000000E+00  0.0000E+00  9.0
       -1   -1    0    0    0  500  0.00000000000E+00  0.00000000000E+00 -2.47755081670E+02  2.47755081670E+02  0.00000000000E+00  0.0000E+00  9.0
       13    1    1    2    0    0  1.37208214410E+02 -3.67723023210E+02 -1.44783529800E+00  3.92490029555E+02  1.05700000000E-01  0.0000E+00  9.0
      -13    1    1    2    0    0 -1.37208214410E+02  3.67723023210E+02  7.07522608980E+02  8.09094907468E+02  1.05700000000E-01  0.0000E+00  9.0
</event>
<event>
 4    1   7.6478753E-02   1.0020000E+03  -1.0000000E+00   9.4070000E-02
       -3   -1    0    0    0  500  0.00000000000E+00  0.00000000000E+00  2.44894435930E+02  2.44894517598E+02  2.00000000000E-01  0.0000E+00  9.0
        3   -1    0    0  500    0  0.00000000000E+00  0.00000000000E+00 -1.02516049490E+03  1.02516051441E+03  2.00000000000E-01  0.0000E+00  9.0
       13    1    1    2    0    0  7.93160585810E+01  2.84537162050E+02  1.22809818890E+02  3.19897947047E+02  1.05700000000E-01  0.0000E+00  9.0
      -13    1    1    2    0    0 -7.93160585810E+01 -2.84537162050E+02 -9.03075877830E+02  9.50157084922E+02  1.05700000000E-01  0.0000E+00  9.0
</event>
<event>
 4    1   7.6478753E-02   9.9760000E+02  -1.0000000E+00   9.4120000E-02
        1   -1    0    0  500    0  0.00000000000E+00  0.00000000000E+00  5.09633963730E+02  5.09633963730E+02  0.00000000000E+00  0.0000E+00  9.0
       -1   -1    0    0    0  500  0.00000000000E+00  0.00000000000E+00 -4.88175587830E+02  4.88175587830E+02  0.00000000000E+00  0.0000E+00  9.0
       13    1    1    2    0    0  1.24889170560E+02  4.67891879420E+02 -1.08758618830E+02  4.96335132841E+02  1.05700000000E-01  0.0000E+00  9.0
      -13    1    1    2    0    0 -1.24889170560E+02 -4.67891879420E+02  1.30216994730E+02  5.01474418729E+02  1.05700000000E-01  0.0000E+00  9.0
</event>
<event>
 4    1   7.6478753E-02   9.9820000E+02  -1.0000000E+00   9.4120000E-02
        3   -1    0    0  500    0  0.00000000000E+00  0.00000000000E+00  4.59594587870E+02  4.59594631387E+02  2.00000000000E-01  0.0000E+00  9.0
       -3   -1    0    0    0  500  0.00000000000E+00  0.00000000000E+00 -5.42002943110E+02  5.42002980010E+02  2.00000000000E-01  0.0000E+00  9.0
       13    1    1    2    0    0  6.80263024710E+01 -2.63563235380E+02 -4.60967544620E+02  5.35335637929E+02  1.05700000000E-01  0.0000E+00  9.0
      -13    1    1    2    0    0 -6.80263024710E+01  2.63563235380E+02  3.78559189380E+02  4.66261973475E+02  1.05700000000E-01  0.0000E+00  9.0
</event>
<event>
 4    1   7.6478753E-02   9.9870000E+02  -1.0000000E+00   9.4110000E-02
        1   -1    0    0  500    0  0.00000000000E+00  0.00000000000E+00  1.33351117510E+03  1.33351117510E+03  0.00000000000E+00  0.0000E+00  9.0
       -1   -1    0    0    0  500  0.00000000000E+00  0.00000000000E+00 -1.86990680050E+02  1.86990680050E+02  0.00000000000E+00  0.0000E+00  9.0
       13    1    1    2    0    0 -2.45877891890E+02  3.39514193030E+02  9.86375385850E+02  1.07175661322E+03  1.05700000000E-01  0.0000E+00  9.0
      -13    1    1    2    0    0  2.45877891890E+02 -3.39514193030E+02  1.60145109200E+02  4.48745241938E+02  1.05700000000E-01  0.0000E+00  9.0
</event>
<event>
 4    1   7.6478753E-02   1.0010000E+03  -1.0000000E+00   9.4090000E-02
        2   -1    0    0  500    0  0.00000000000E+00  0.00000000000E+00  1.01108868340E+03  1.01108868340E+03  0.00000000000E+00  0.0000E+00  9.0
       -2   -1    0    0    0  500  0.00000000000E+00  0.00000000000E+00 -2.47705680000E+02  2.47705680000E+02  0.00000000000E+00  0.0000E+00  9.0
       13    1    1    2    0    0  1.42557973270E+02 -4.06867628560E+02  7.01315441810E+02  8.23229860371E+02  1.05700000000E-01  0.0000E+00  9.0
      -13    1    1    2    0    0 -1.42557973270E+02  4.06867628560E+02  6.20675615770E+01  4.35564503014E+02  1.05700000000E-01  0.0000E+00  9.0
</event>
<event>
 4    1   7.6478753E-02   1.0010000E+03  -1.0000000E+00   9.4090000E-02
       -1   -1    0    0    0  500  0.00000000000E+00  0.00000000000E+00  1.56922896580E+03  1.56922896580E+03  0.00000000000E+00  0.0000E+00  9.0
        1   -1    0    0  500    0  0.00000000000E+00  0.00000000000E+00 -1.59524133380E+02  1.59524133380E+02  0.00000000000E+00  0.0000E+00  9.0
       13    1    1    2    0    0  2.66959045250E+02  2.93526107910E+02  1.78269741120E+02  4.34976803562E+02  1.05700000000E-01  0.0000E+00  9.0
      -13    1    1    2    0    0 -2.66959045250E+02 -2.93526107910E+02  1.23143509130E+03  1.29377629563E+03  1.05700000000E-01  0.0000E+00  9.0
</event>
<event>
 4    1   7.6478753E-02   1.0040000E+03  -1.0000000E+00   9.4060000E-02
       -1   -1    0    0    0  500  0.00000000000E+00  0.00000000000E+00  1.46654232610E+02  1.46654232610E+02  0.00000000000E+00  0.0000E+00  9.0
        1   -1    0    0  500    0  0.00000000000E+00  0.00000000000E+00 -1.71791009620E+03  1.71791009620E+03  0.00000000000E+00  0.0000E+00  9.0
       13    1    1    2    0    0  5.29079573340E+01 -1.62658167490E+02  9.08525789230E+01  1.93677912189E+02  1.05700000000E-01  0.0000E+00  9.0
      -13    1    1    2    0    0 -5.29079573340E+01  1.62658167490E+02 -1.66210844260E+03  1.67088641671E+03  1.05700000000E-01  0.0000E+00  9.0
</event>
<event>
 4    1   7.6478753E-02   9.9950000E+02  -1.0000000E+00   9.4100000E-02
        1   -1    0    0  500    0  0.00000000000E+00  0.00000000000E+00  1.28579452230E+03  1.28579452230E+03  0.00000000000E+00  0.0000E+00  9.0
       -1   -1    0    0    0  500  0.00000000000E+00  0.00000000000E+00 -1.94230920200E+02  1.94230920200E+02  0.00000000000E+00  0.0000E+00  9.0
       13    1    1    2    0    0  1.52363012400E+02 -4.41858657650E+02  2.83855254530E+02  5.46833957966E+02  1.05700000000E-01  0.0000E+00  9.0
      -13    1    1    2    0    0 -1.52363012400E+02  4.41858657650E+02  8.07708347570E+02  9.33191484527E+02  1.05700000000E-01  0.0000E+00  9.0
</event>
<event>
 4    1   7.6478753E-02   9.9970000E+02  -1.0000000E+00   9.4100000E-02
        1   -1    0    0  500    0  0.00000000000E+00  0.00000000000E+00  6.95531418520E+02  6.95531418520E+02  0.00000000000E+00  0.0000E+00  9.0
       -1   -1    0    0    0  500  0.00000000000E+00  0.00000000000E+00 -3.59223555740E+02  3.59223555740E+02  0.00000000000E+00  0.0000E+00  9.0
       13    1    1    2    0    0  4.90003386090E+02  8.90942363390E+01  1.23265037530E+02  5.13064695704E+02  1.05700000000E-01  0.0000E+00  9.0
      -13    1    1    2    0    0 -4.90003386090E+02 -8.90942363390E+01  2.13042825240E+02  5.41690278561E+02  1.05700000000E-01  0.0000E+00  9.0
</event>
<event>
 4    1   7.6478753E-02   9.9410000E+02  -1.0000000E+00   9.4160000E-02
        2   -1    0    0  500    0  0.00000000000E+00  0.00000000000E+00  1.08542798080E+03  1.08542798080E+03  0.00000000000E+00  0.0000E+00  9.0
       -2   -1    0    0    0  500  0.00000000000E+00  0.00000000000E+00 -2.27634068560E+02  2.27634068560E+02  0.00000000000E+00  0.0000E+00  9.0
       13    1    1    2    0    0 -1.16720297870E+01 -8.63585020750E+01 -2.17466059580E+02  2.34276600201E+02  1.05700000000E-01  0.0000E+00  9.0
      -13    1    1    2    0    0  1.16720297870E+01  8.63585020750E+01  1.07525997190E+03  1.07878544925E+03  1.05700000000E-01  0.0000E+00  9.0
</event>
<event>
 4    1   7.6478753E-02   1.0040000E+03  -1.0000000E+00   9.4050000E-02
        2   -1    0    0  500    0  0.00000000000E+00  0.00000000000E+00  2.55865962120E+03  2.55865962120E+03  0.00000000000E+00  0.0000E+00  9.0
       -2   -1    0    0    0  500  0.00000000000E+00  0.00000000000E+00 -9.84850255050E+01  9.84850255050E+01  0.00000000000E+00  0.0000E+00  9.0
       13    1    1    2    0    0  4.77994379350E+02 -1.22398081150E+02  9.85653372270E+02  1.10225790920E+03  1.05700000000E-01  0.0000E+00  9.0
      -13    1    1    2    0    0 -4.77994379350E+02  1.22398081150E+02  1.47452122350E+03  1.55488673757E+03  1.05700000000E-01  0.0000E+00  9.0
</event>
<event>
 4    1   7.6478753E-02   1.0030000E+03  -1.0000000E+00   9.4060000E-02
        2   -1    0    0  500    0  0.00000000000E+00  0.00000000000E+00  8.37681137620E+02  8.37681137620E+02  0.00000000000E+00  0.0000E+00  9.0
       -2   -1    0    0    0  500  0.00000000000E+00  0.00000000000E+00 -3.00338062540E+02  3.00338062540E+02  0.00000000000E+00  0.0000E+00  9.0
       13    1    1    2    0    0  4.32205958650E+02  2.41348440670E+02  1.76955288950E+02  5.25703572335E+02  1.05700000000E-01  0.0000E+00  9.0
      -13    1    1    2    0    0 -4.32205958650E+02 -2.41348440670E+02  3.60387786130E+02  6.12315627818E+02  1.05700000000E-01  0.0000E+00  9.0
</event>
<event>
 4    1   7.6478753E-02   1.0090000E+03  -1.0000000E+00   9.4000000E-02
        1   -1    0    0  500    0  0.00000000000E+00  0.00000000000E+00  1.62828283750E+03  1.62828283750E+03  0.00000000000E+00  0.0000E+00  9.0
       -1   -1    0    0    0  500  0.00000000000E+00  0.00000000000E+00 -1.56454423610E+02  1.56454423610E+02  0.00000000000E+00  0.0000E+00  9.0
       13    1    1    2    0    0 -1.80041408840E+02 -7.22560315930E+01  1.55973274840E+03  1.57175128459E+03  1.05700000000E-01  0.0000E+00  9.0
      -13    1    1    2    0    0  1.80041408840E+02  7.22560315930E+01 -8.79043345120E+01  2.12985976527E+02  1.05700000000E-01  0.0000E+00  9.0
</event>
<event>
 4    1   7.6478753E-02   1.0140000E+03  -1.0000000E+00   9.3950000E-02
       -1   -1    0    0    0  500  0.00000000000E+00  0.00000000000E+00  5.26161215700E+02  5.26161215700E+02  0.00000000000E+00  0.0000E+00  9.0
        1   -1    0    0  500    0  0.00000000000E+00  0.00000000000E+00 -4.88223329320E+02  4.88223329320E+02  0.00000000000E+00  0.0000E+00  9.0
       13    1    1    2    0    0  3.03221432700E+02 -4.00802815290E+02 -4.66363586790E+01  5.04738640403E+02  1.05700000000E-01  0.0000E+00  9.0
      -13    1    1    2    0    0 -3.03221432700E+02  4.00802815290E+02  8.45742450500E+01  5.09645904615E+02  1.05700000000E-01  0.0000E+00  9.0
</event>
<event>
 4    1   7.6478753E-02   9.9300000E+02  -1.0000000E+00   9.4170000E-02
       -1   -1    0    0    0  500  0.00000000000E+00  0.00000000000E+00  2.63745982880E+02  2.63745982880E+02  0.00000000000E+00  0.0000E+00  9.0
        1   -1    0    0  500    0  0.00000000000E+00  0.00000000000E+00 -9.34719254640E+02  9.34719254640E+02  0.00000000000E+00  0.0000E+00  9.0
       13    1    1    2    0    0 -4.41542986340E+02  2.26045008000E+02 -3.61703398410E+02  6.13910346892E+02  1.05700000000E-01  0.0000E+00  9.0
      -13    1    1    2    0    0  4.41542986340E+02 -2.26045008000E+02 -3.09269873350E+02  5.84554890632E+02  1.05700000000E-01  0.0000E+00  9.0
</event>
<event>
 4    1   7.6478753E-02   1.0770000E+03  -1.0000000E+00   9.3310000E-02
       -1   -1    0    0    0  500  0.00000000000E+00  0.00000000000E+00  2.79466576690E+02  2.79466576690E+02  0.00000000000E+00  0.0000E+00  9.0
        1   -1    0    0  500    0  0.00000000000E+00  0.00000000000E+00 -1.03693544910E+03  1.03693544910E+03  0.00000000000E+00  0.0000E+00  9.0
       13    1    1    2    0    0 -4.70286064260E+02  2.59294603120E+02 -4.24256031570E+02  6.84394524335E+02  1.05700000000E-01  0.0000E+00  9.0
      -13    1    1    2    0    0  4.70286064260E+02 -2.59294603120E+02 -3.33212840890E+02  6.32007501499E+02  1.05700000000E-01  0.0000E+00  9.0
</event>
<event>
 4    1   7.6478753E-02   9.9120000E+02  -1.0000000E+00   9.4190000E-02
       -1   -1    0    0    0  500  0.00000000000E+00  0.00000000000E+00  1.55369693750E+02  1.55369693750E+02  0.00000000000E+00  0.0000E+00  9.0
        1   -1    0    0  500    0  0.00000000000E+00  0.00000000000E+00 -1.58083410910E+03  1.58083410910E+03  0.00000000000E+00  0.0000E+00  9.0
       13    1    1    2    0    0  1.66780180540E+02 -4.28002064760E+02 -3.86850743080E+02  6.00545505898E+02  1.05700000000E-01  0.0000E+00  9.0
      -13    1    1    2    0    0 -1.66780180540E+02  4.28002064760E+02 -1.03861367230E+03  1.13565829699E+03  1.05700000000E-01  0.0000E+00  9.0
</event>
<event>
 4    1   7.6478753E-02   1.0010000E+03  -1.0000000E+00   9.4090000E-02
        1   -1    0    0  500    0  0.00000000000E+00  0.00000000000E+00  8.87757358680E+02  8.87757358680E+02  0.00000000000E+00  0.0000E+00  9.0
       -1   -1    0    0    0  500  0.00000000000E+00  0.00000000000E+00 -2.82024004910E+02  2.82024004910E+02  0.00000000000E+00  0.0000E+00  9.0
       13    1    1    2    0    0 -2.11496061170E+02 -3.12790756520E+02  6.86657313080E+02  7.83624219913E+02  1.05700000000E-01  0.0000E+00  9.0
      -13    1    1    2    0    0  2.11496061170E+02  3.12790756520E+02 -8.09239593100E+01  3.86157143683E+02  1.05700000000E-01  0.0000E+00  9.0
</event>
<event>
 4    1   7.6478753E-02   1.0020000E+03  -1.0000000E+00   9.4080000E-02
       -1   -1    0    0    0  500  0.00000000000E+00  0.00000000000E+00  4.86283244910E+02  4.86283244910E+02  0.00000000000E+00  0.0000E+00  9.0
        1   -1    0    0  500    0  0.00000000000E+00  0.00000000000E+00 -5.16071706420E+02  5.16071706420E+02  0.00000000000E+00  0.0000E+00  9.0
       13    1    1    2    0    0 -4.61012000340E+02  7.77630641630E+01  1.65123755090E+02  4.95827615480E+02  1.05700000000E-01  0.0000E+00  9.0
      -13    1    1    2    0    0  4.61012000340E+02 -7.77630641630E+01 -1.94912216600E+02  5.06527335845E+02  1.05700000000E-01  0.0000E+00  9.0
</event>
<event>
 4    1   7.6478753E-02   1.0110000E+03  -1.0000000E+00   9.3970000E-02
       -1   -1    0    0    0  500  0.00000000000E+00  0.00000000000E+00  1.68865717090E+02  1.68865717090E+02  0.00000000000E+00  0.0000E+00  9.0
        1   -1    0    0  500    0  0.00000000000E+00  0.00000000000E+00 -1.51467768250E+03  1.51467768250E+03  0.00000000000E+00  0.0000E+00  9.0
       13    1    1    2    0    0  4.16016098170E+02  2.85122794830E+02 -6.10346741160E+02  7.91762311357E+02  1.05700000000E-01  0.0000E+00  9.0
      -13    1    1    2    0    0 -4.16016098170E+02 -2.85122794830E+02 -7.35465224210E+02  8.91781088195E+02  1.05700000000E-01  0.0000E+00  9.0
</event>
<event>
 4    1   7.6478753E-02   9.9810000E+02  -1.0000000E+00   9.4120000E-02
        2   -1    0    0  500    0  0.00000000000E+00  0.00000000000E+00  8.43435120480E+02  8.43435120480E+02  0.00000000000E+00  0.0000E+00  9.0
       -2   -1    0    0    0  500  0.00000000000E+00  0.00000000000E+00 -2.95269775190E+02  2.95269775190E+02  0.00000000000E+00  0.0000E+00  9.0
       13    1    1    2    0    0 -1.96651051720E+01 -4.97816635820E+02  2.41159031160E+02  5.53503214754E+02  1.05700000000E-01  0.0000E+00  9.0
      -13    1    1    2    0    0  1.96651051720E+01  4.97816635820E+02  3.07006314130E+02  5.85201680918E+02  1.05700000000E-01  0.0000E+00  9.0
</event>
<event>
 4    1   7.6478753E-02   1.0210000E+03  -1.0000000E+00   9.3880000E-02
        1   -1    0    0  500    0  0.00000000000E+00  0.00000000000E+00  7.25066111640E+02  7.25066111640E+02  0.00000000000E+00  0.0000E+00  9.0
       -1   -1    0    0    0  500  0.00000000000E+00  0.00000000000E+00 -3.59178945910E+02  3.59178945910E+02  0.00000000000E+00  0.0000E+00  9.0
       13    1    1    2    0    0  4.29629436330E+01 -4.02035282030E+02 -1.47827677230E+02  4.30501121776E+02  1.05700000000E-01  0.0000E+00  9.0
      -13    1    1    2    0    0 -4.29629436330E+01  4.02035282030E+02  5.13714842960E+02  6.53743935783E+02  1.05700000000E-01  0.0000E+00  9.0
</event>
<event>
 4    1   7.6478753E-02   1.0020000E+03  -1.0000000E+00   9.4070000E-02
        2   -1    0    0  500    0  0.00000000000E+00  0.00000000000E+00  2.96825196890E+03  2.96825196890E+03  0.00000000000E+00  0.0000E+00  9.0
       -2   -1    0    0    0  500  0.00000000000E+00  0.00000000000E+00 -8.46033902690E+01  8.46033902690E+01  0.00000000000E+00  0.0000E+00  9.0
       13    1    1    2    0    0 -2.76944048230E+01 -1.58088349400E+02 -4.19955581450E+00  1.60550782359E+02  1.05700000000E-01  0.0000E+00  9.0
      -13    1    1    2    0    0  2.76944048230E+01  1.58088349400E+02  2.88784813450E+03  2.89230457687E+03  1.05700000000E-01  0.0000E+00  9.0
</event>
<event>
 4    1   7.6478753E-02   1.0040000E+03  -1.0000000E+00   9.4060000E-02
        1   -1    0    0  500    0  0.00000000000E+00  0.00000000000E+00  3.01028336700E+02  3.01028336700E+02  0.00000000000E+00  0.0000E+00  9.0
       -1   -1    0    0    0  500  0.00000000000E+00  0.00000000000E+00 -8.37054251510E+02  8.37054251510E+02  0.00000000000E+00  0.0000E+00  9.0
       13    1    1    2    0    0  3.24502590670E+02 -3.77171243020E+01  1.64028215110E+02  3.65554071707E+02  1.05700000000E-01  0.0000E+00  9.0
      -13    1    1    2    0    0 -3.24502590670E+02  3.77171243020E+01 -7.00054129920E+02  7.72528516501E+02  1.05700000000E-01  0.0000E+00  9.0
</event>
<event>
 4    1   7.6478753E-02   1.0000000E+03  -1.0000000E+00   9.4090000E-02
        2   -1    0    0  500    0  0.00000000000E+00  0.00000000000E+00  5.95215081400E+02  5.95215081400E+02  0.00000000000E+00  0.0000E+00  9.0
       -2   -1    0    0    0  500  0.00000000000E+00  0.00000000000E+00 -4.20225971260E+02  4.20225971260E+02  0.00000000000E+00  0.0000E+00  9.0
       13    1    1    2    0    0  4.42993287410E+02 -1.46931615580E+02  2.69925979940E+02  5.39158602052E+02  1.05700000000E-01  0.0000E+00  9.0
      -13    1    1    2    0    0 -4.42993287410E+02  1.46931615580E+02 -9.49368698020E+01  4.76282450619E+02  1.05700000000E-01  0.0000E+00  9.0
</event>
<event>
 4    1   7.6478753E-02   9.9540000E+02  -1.0000000E+00   9.4150000E-02
        1   -1    0    0  500    0  0.00000000000E+00  0.00000000000E+00  1.92732801860E+02  1.92732801860E+02  0.00000000000E+00  0.0000E+00  9.0
       -1   -1    0    0    0  500  0.00000000000E+00  0.00000000000E+00 -1.28517920970E+03  1.28517920970E+03  0.00000000000E+00  0.0000E+00  9.0
       13    1    1    2    0    0 -3.97385373370E+02 -1.09473322350E+02 -1.32090690960E+02  4.32836580115E+02  1.05700000000E-01  0.0000E+00  9.0
      -13    1    1    2    0    0  3.97385373370E+02  1.09473322350E+02 -9.60355716840E+02  1.04507543140E+03  1.05700000000E-01  0.0000E+00  9.0
</event>
<event>
 4    1   7.6478753E-02   9.9760000E+02  -1.0000000E+00   9.4120000E-02
        1   -1    0    0  500    0  0.00000000000E+00  0.00000000000E+00  2.88776114060E+02  2.88776114060E+02  0.00000000000E+00  0.0000E+00  9.0
       -1   -1    0    0    0  500  0.00000000000E+00  0.00000000000E+00 -8.61581796060E+02  8.61581796060E+02  0.00000000000E+00  0.0000E+00  9.0
       13    1    1    2    0    0 -3.04191025530E+02 -1.91207799590E+02 -6.85374702420E+02  7.73841777450E+02  1.05700000000E-01  0.0000E+00  9.0
      -13    1    1    2    0    0  3.04191025530E+02  1.91207799590E+02  1.12569020420E+02  3.76516132679E+02  1.05700000000E-01  0.0000E+00  9.0
</event>
<event>
 4    1   7.6478753E-02   9.9960000E+02  -1.0000000E+00   9.4100000E-02
        2   -1    0    0  500    0  0.00000000000E+00  0.00000000000E+00  1.26284052510E+03  1.26284052510E+03  0.00000000000E+00  0.0000E+00  9.0
       -2   -1    0    0    0  500  0.00000000000E+00  0.00000000000E+00 -1.97797472200E+02  1.97797472200E+02  0.00000000000E+00  0.0000E+00  9.0
       13    1    1    2    0    0 -2.29920864450E+02  4.43686670960E+02  5.44319490060E+02  7.38921636122E+02  1.05700000000E-01  0.0000E+00  9.0
      -13    1    1    2    0    0  2.29920864450E+02 -4.43686670960E+02  5.20723562830E+02  7.21716361153E+02  1.05700000000E-01  0.0000E+00  9.0
</event>
<event>
 4    1   7.6478753E-02   9.9950000E+02  -1.0000000E+00   9.4100000E-02
       -1   -1    0    0    0  500  0.00000000000E+00  0.00000000000E+00  1.04201330780E+03  1.04201330780E+03  0.00000000000E+00  0.0000E+00  9.0
        1   -1    0    0  500    0  0.00000000000E+00  0.00000000000E+00 -2.39672260580E+02  2.39672260580E+02  0.00000000000E+00  0.0000E+00  9.0
       13    1    1    2    0    0  3.26807007630E+02  2.30539173200E+02  7.85427073730E+02  8.81389147844E+02  1.05700000000E-01  0.0000E+00  9.0
      -13    1    1    2    0    0 -3.26807007630E+02 -2.30539173200E+02  1.69139734870E+01  4.00296420528E+02  1.05700000000E-01  0.0000E+00  9.0
</event>
<event>
 4    1   7.6478753E-02   1.0000000E+03  -1.0000000E+00   9.4090000E-02
       -1   -1    0    0    0  500  0.00000000000E+00  0.00000000000E+00  6.10395415830E+02  6.10395415830E+02  0.00000000000E+00  0.0000E+00  9.0
        1   -1    0    0  500    0  0.00000000000E+00  0.00000000000E+00 -4.09942295070E+02  4.09942295070E+02  0.00000000000E+00  0.0000E+00  9.0
       13    1    1    2    0    0 -2.47435455370E+01 -2.95559184670E+02  5.11046860350E+02  5.90877634824E+02  1.05700000000E-01  0.0000E+00  9.0
      -13    1    1    2    0    0  2.47435455370E+01  2.95559184670E+02 -3.10593739600E+02  4.29460076072E+02  1.05700000000E-01  0.0000E+00  9.0
</event>
<event>
 4    1   7.6478753E-02   1.0010000E+03  -1.0000000E+00   9.4080000E-02
       -3   -1    0    0    0  500  0.00000000000E+00  0.00000000000E+00  5.65710310320E+02  5.65710345674E+02  2.00000000000E-01  0.0000E+00  9.0
        3   -1    0    0  500    0  0.00000000000E+00  0.00000000000E+00 -4.43032485870E+02  4.43032531013E+02  2.00000000000E-01  0.0000E+00  9.0
       13    1    1    2    0    0  2.55808560070E+02  8.52808621720E+01  4.86295553240E+02  5.56052354668E+02  1.05700000000E-01  0.0000E+00  9.0
      -13    1    1    2    0    0 -2.55808560070E+02 -8.52808621720E+01 -3.63617728790E+02  4.52690522013E+02  1.05700000000E-01  0.0000E+00  9.0
</event>
<event>
 4    1   7.6478753E-02   1.0000000E+03  -1.0000000E+00   9.4090000E-02
        1   -1    0    0  500    0  0.00000000000E+00  0.00000000000E+00  1.00408289670E+03  1.00408289670E+03  0.00000000000E+00  0.0000E+00  9.0
       -1   -1    0    0    0  500  0.00000000000E+00  0.00000000000E+00 -2.49156518130E+02  2.49156518130E+02  0.00000000000E+00  0.0000E+00  9.0
       13    1    1    2    0    0 -2.89035194670E+01  3.77963066590E+02 -3.13471187230E+01  3.80360547597E+02  1.05700000000E-01  0.0000E+00  9.0
      -13    1    1    2    0    0  2.89035194670E+01 -3.77963066590E+02  7.86273497270E+02  8.72878867212E+02  1.05700000000E-01  0.0000E+00  9.0
</event>
<event>
 4    1   7.6478753E-02   9.9880000E+02  -1.0000000E+00   9.4110000E-02
        1   -1    0    0  500    0  0.00000000000E+00  0.00000000000E+00  1.08258533570E+02  1.08258533570E+02  0.00000000000E+00  0.0000E+00  9.0
       -1   -1    0    0    0  500  0.00000000000E+00  0.00000000000E+00 -2.30393661160E+03  2.30393661160E+03  0.00000000000E+00  0.0000E+00  9.0
       13    1    1    2    0    0 -9.78382693350E+01 -3.36141411460E+02 -1.95798872390E+03  1.98904078127E+03  1.05700000000E-01  0.0000E+00  9.0
      -13    1    1    2    0    0  9.78382693350E+01  3.36141411460E+02 -2.37689354110E+02  4.23154363885E+02  1.05700000000E-01  0.0000E+00  9.0
</event>
<event>
 4    1   7.6478753E-02   1.0060000E+03  -1.0000000E+00   9.4030000E-02
        1   -1    0    0  500    0  0.00000000000E+00  0.00000000000E+00  2.07804008340E+02  2.07804008340E+02  0.00000000000E+00  0.0000E+00  9.0
       -1   -1    0    0    0  500  0.00000000000E+00  0.00000000000E+00 -1.21758071290E+03  1.21758071290E+03  0.00000000000E+00  0.0000E+00  9.0
       13    1    1    2    0    0  9.61689161900E+01 -4.06728304620E+02 -9.01461172110E+02  9.93634052463E+02  1.05700000000E-01  0.0000E+00  9.0
      -13    1    1    2    0    0 -9.61689161900E+01  4.06728304620E+02 -1.08315532420E+02  4.31750668738E+02  1.05700000000E-01  0.0000E+00  9.0
</event>
<event>
 4    1   7.6478753E-02   9.9410000E+02  -1.0000000E+00   9.4160000E-02
       -2   -1    0    0    0  500  0.00000000000E+00  0.00000000000E+00  1.48554946530E+02  1.48554946530E+02  0.00000000000E+00  0.0000E+00  9.0
        2   -1    0    0  500    0  0.00000000000E+00  0.00000000000E+00 -1.66313461820E+03  1.66313461820E+03  0.00000000000E+00  0.0000E+00  9.0
       13    1    1    2    0    0  4.60565452140E+02  1.44771401610E+02 -5.41754915860E+02  7.25656733215E+02  1.05700000000E-01  0.0000E+00  9.0
      -13    1    1    2    0    0 -4.60565452140E+02 -1.44771401610E+02 -9.72824755810E+02  1.08603283151E+03  1.05700000000E-01  0.0000E+00  9.0
</event>
<event>
 4    1   7.6478753E-02   1.0050000E+03  -1.0000000E+00   9.4050000E-02
       -1   -1    0    0    0  500  0.00000000000E+00  0.00000000000E+00  4.49035027530E+02  4.49035027530E+02  0.00000000000E+00  0.0000E+00  9.0
        1   -1    0    0  500    0  0.00000000000E+00  0.00000000000E+00 -5.62169235590E+02  5.62169235590E+02  0.00000000000E+00  0.0000E+00  9.0
       13    1    1    2    0    0 -4.22377575140E+02  6.48730100610E+01  2.09341542480E+02  4.75852094664E+02  1.05700000000E-01  0.0000E+00  9.0
      -13    1    1    2    0    0  4.22377575140E+02 -6.48730100610E+01 -3.22475750540E+02  5.35352168460E+02  1.05700000000E-01  0.0000E+00  9.0
</event>
<event>
 4    1   7.6478753E-02   9.3270000E+02  -1.0000000E+00   9.4860000E-02
       -1   -1    0    0    0  500  0.00000000000E+00  0.00000000000E+00  2.50065370940E+02  2.50065370940E+02  0.00000000000E+00  0.0000E+00  9.0
        1   -1    0    0  500    0  0.00000000000E+00  0.00000000000E+00 -8.69613537420E+02  8.69613537420E+02  0.00000000000E+00  0.0000E+00  9.0
       13    1    1    2    0    0  4.50382232840E+02 -1.17160820270E+02 -2.73970714590E+02  5.40028496553E+02  1.05700000000E-01  0.0000E+00  9.0
      -13    1    1    2    0    0 -4.50382232840E+02  1.17160820270E+02 -3.45577451890E+02  5.79650411793E+02  1.05700000000E-01  0.0000E+00  9.0
</event>
<event>
 4    1   7.6478753E-02   9.9940000E+02  -1.0000000E+00   9.4100000E-02
       -1   -1    0    0    0  500  0.00000000000E+00  0.00000000000E+00  3.18460898500E+02  3.18460898500E+02  0.00000000000E+00  0.0000E+00  9.0
        1   -1    0    0  500    0  0.00000000000E+00  0.00000000000E+00 -7.84119249230E+02  7.84119249230E+02  0.00000000000E+00  0.0000E+00  9.0
       13    1    1    2    0    0  4.85859687110E+02  1.13621696240E+02 -2.62876084450E+02  5.63979939682E+02  1.05700000000E-01  0.0000E+00  9.0
      -13    1    1    2    0    0 -4.85859687110E+02 -1.13621696240E+02 -2.02782266270E+02  5.38600208040E+02  1.05700000000E-01  0.0000E+00  9.0
</event>
<event>
 4    1   7.6478753E-02   9.9400000E+02  -1.0000000E+00   9.4160000E-02
       -1   -1    0    0    0  500  0.00000000000E+00  0.00000000000E+00  5.41160929020E+02  5.41160929020E+02  0.00000000000E+00  0.0000E+00  9.0
        1   -1    0    0  500    0  0.00000000000E+00  0.00000000000E+00 -4.56413394350E+02  4.56413394350E+02  0.00000000000E+00  0.0000E+00  9.0
       13    1    1    2    0    0  1.32778269880E+02  3.33136227890E+01  5.21865710990E+02  5.39521730698E+02  1.05700000000E-01  0.0000E+00  9.0
      -13    1    1    2    0    0 -1.32778269880E+02 -3.33136227890E+01 -4.37118176320E+02  4.58052592676E+02  1.05700000000E-01  0.0000E+00  9.0
</event>
<event>
 4    1   7.6478753E-02   1.0060000E+03  -1.0000000E+00   9.4030000E-02
        1   -1    0    0  500    0  0.00000000000E+00  0.00000000000E+00  1.26224851240E+03  1.26224851240E+03  0.00000000000E+00  0.0000E+00  9.0
       -1   -1    0    0    0  500  0.00000000000E+00  0.00000000000E+00 -2.00619437600E+02  2.00619437600E+02  0.00000000000E+00  0.0000E+00  9.0
       13    1    1    2    0    0 -4.10324778430E+02 -5.44689039730E+01  9.46776490560E+02  1.03330490154E+03  1.05700000000E-01  0.0000E+00  9.0
      -13    1    1    2    0    0  4.10324778430E+02  5.44689039730E+01  1.14852584200E+02  4.29563048415E+02  1.05700000000E-01  0.0000E+00  9.0
</event>
<event>
 4    1   7.6478753E-02   1.0000000E+03  -1.0000000E+00   9.4090000E-02
        1   -1    0    0  500    0  0.00000000000E+00  0.00000000000E+00  6.60275259430E+02  6.60275259430E+02  0.00000000000E+00  0.0000E+00  9.0
       -1   -1    0    0    0  500  0.00000000000E+00  0.00000000000E+00 -3.78924834720E+02  3.78924834720E+02  0.00000000000E+00  0.0000E+00  9.0
       13    1    1    2    0    0 -2.94653867760E+02 -1.12984754170E+02 -2.62463478310E+02  4.10455289989E+02  1.05700000000E-01  0.0000E+00  9.0
      -13    1    1    2    0    0  2.94653867760E+02  1.12984754170E+02  5.43813903020E+02  6.28744804154E+02  1.05700000000E-01  0.0000E+00  9.0
</event>
<event>
 4    1   7.6478753E-02   9.9630000E+02  -1.0000000E+00   9.4140000E-02
       -3   -1    0    0    0  500  0.00000000000E+00  0.00000000000E+00  9.79813171590E+02  9.79813192002E+02  2.00000000000E-01  0.0000E+00  9.0
        3   -1    0    0  500    0  0.00000000000E+00  0.00000000000E+00 -2.53255727260E+02  2.53255806232E+02  2.00000000000E-01  0.0000E+00  9.0
       13    1    1    2    0    0  9.10358573280E+01  3.40700000890E+02  7.98720523710E+02  8.73108529390E+02  1.05700000000E-01  0.0000E+00  9.0
      -13    1    1    2    0    0 -9.10358573280E+01 -3.40700000890E+02 -7.21630793780E+01  3.59960468835E+02  1.05700000000E-01  0.0000E+00  9.0
</event>
<event>
 4    1   7.6478753E-02   9.9780000E+02  -1.0000000E+00   9.4120000E-02
       -1   -1    0    0    0  500  0.00000000000E+00  0.00000000000E+00  4.01955965870E+02  4.01955965870E+02  0.00000000000E+00  0.0000E+00  9.0
        1   -1    0    0  500    0  0.00000000000E+00  0.00000000000E+00 -6.19186875140E+02  6.19186875140E+02  0.00000000000E+00  0.0000E+00  9.0
       13    1    1    2    0    0  3.42350935530E+02  1.43541782990E+02  2.32474809450E+02  4.38010222168E+02  1.05700000000E-01  0.0000E+00  9.0
      -13    1    1    2    0    0 -3.42350935530E+02 -1.43541782990E+02 -4.49705718730E+02  5.83132618838E+02  1.05700000000E-01  0.0000E+00  9.0
</event>
<event>
 4    1   7.6478753E-02   9.9750000E+02  -1.0000000E+00   9.4120000E-02
       -1   -1    0    0    0  500  0.00000000000E+00  0.00000000000E+00  9.53023911500E+02  9.53023911500E+02  0.00000000000E+00  0.0000E+00  9.0
        1   -1    0    0  500    0  0.00000000000E+00  0.00000000000E+00 -2.61002536800E+02  2.61002536800E+02  0.00000000000E+00  0.0000E+00  9.0
       13    1    1    2    0    0  2.82033024420E+02 -3.49983585710E+02  6.09056380380E+02  7.56954967474E+02  1.05700000000E-01  0.0000E+00  9.0
      -13    1    1    2    0    0 -2.82033024420E+02  3.49983585710E+02  8.29649943280E+01  4.57071480828E+02  1.05700000000E-01  0.0000E+00  9.0
</event>
<event>
 4    1   7.6478753E-02   9.7810000E+02  -1.0000000E+00   9.4340000E-02
        1   -1    0    0  500    0  0.00000000000E+00  0.00000000000E+00  1.15995332690E+02  1.15995332690E+02  0.00000000000E+00  0.0000E+00  9.0
       -1   -1    0    0    0  500  0.00000000000E+00  0.00000000000E+00 -2.06192246080E+03  2.06192246080E+03  0.00000000000E+00  0.0000E+00  9.0
       13    1    1    2    0    0  2.94584938750E+02  3.90250736180E+02 -9.50982928630E+02  1.06931962712E+03  1.05700000000E-01  0.0000E+00  9.0
      -13    1    1    2    0    0 -2.94584938750E+02 -3.90250736180E+02 -9.94944199440E+02  1.10859816633E+03  1.05700000000E-01  0.0000E+00  9.0
</event>
<event>
 4    1   7.6478753E-02   9.9910000E+02  -1.0000000E+00   9.4110000E-02
       -1   -1    0    0    0  500  0.00000000000E+00  0.00000000000E+00  1.81743656330E+02  1.81743656330E+02  0.00000000000E+00  0.0000E+00  9.0
        1   -1    0    0  500    0  0.00000000000E+00  0.00000000000E+00 -1.37299791450E+03  1.37299791450E+03  0.00000000000E+00  0.0000E+00  9.0
       13    1    1    2    0    0  2.35247903280E+02 -3.79684274010E+02 -2.47540567640E+02  5.10664339589E+02  1.05700000000E-01  0.0000E+00  9.0
      -13    1    1    2    0    0 -2.35247903280E+02  3.79684274010E+02 -9.43713690520E+02  1.04407723123E+03  1.05700000000E-01  0.0000E+00  9.0
</event>
<event>
 4    1   7.6478753E-02   1.0050000E+03  -1.0000000E+00   9.4040000E-02
        2   -1    0    0  500    0  0.00000000000E+00  0.00000000000E+00  1.49698474350E+03  1.49698474350E+03  0.00000000000E+00  0.0000E+00  9.0
       -2   -1    0    0    0  500  0.00000000000E+00  0.00000000000E+00 -1.68802589450E+02  1.68802589450E+02  0.00000000000E+00  0.0000E+00  9.0
       13    1    1    2    0    0  2.15634905640E+02  4.51986583210E+02  5.91781821710E+02  7.75239330537E+02  1.05700000000E-01  0.0000E+00  9.0
      -13    1    1    2    0    0 -2.15634905640E+02 -4.51986583210E+02  7.36400332310E+02  8.90548002373E+02  1.05700000000E-01  0.0000E+00  9.0
</event>
<event>
 4    1   7.6478753E-02   1.0070000E+03  -1.0000000E+00   9.4030000E-02
        2   -1    0    0  500    0  0.00000000000E+00  0.00000000000E+00  2.87350892550E+03  2.87350892550E+03  0.00000000000E+00  0.0000E+00  9.0
       -2   -1    0    0    0  500  0.00000000000E+00  0.00000000000E+00 -8.81678450280E+01  8.81678450280E+01  0.00000000000E+00  0.0000E+00  9.0
       13    1    1    2    0    0 -3.48206388890E+02  3.12990808210E+02  8.49071170920E+02  9.69604455305E+02  1.05700000000E-01  0.0000E+00  9.0
      -13    1    1    2    0    0  3.48206388890E+02 -3.12990808210E+02  1.93626990950E+03  1.99207231518E+03  1.05700000000E-01  0.0000E+00  9.0
</event>
<event>
 4    1   7.6478753E-02   1.0010000E+03  -1.0000000E+00   9.4080000E-02
        1   -1    0    0  500    0  0.00000000000E+00  0.00000000000E+00  1.06570313180E+03  1.06570313180E+03  0.00000000000E+00  0.0000E+00  9.0
       -1   -1    0    0    0  500  0.00000000000E+00  0.00000000000E+00 -2.35207699360E+02  2.35207699360E+02  0.00000000000E+00  0.0000E+00  9.0
       13    1    1    2    0    0  1.07301429280E+02  4.64060766250E+02  2.14836609830E+02  5.22513896077E+02  1.05700000000E-01  0.0000E+00  9.0
      -13    1    1    2    0    0 -1.07301429280E+02 -4.64060766250E+02  6.15658822590E+02  7.78396935055E+02  1.05700000000E-01  0.0000E+00  9.0
</event>
<event>
 4    1   7.6478753E-02   9.9930000E+02  -1.0000000E+00   9.4110000E-02
       -2   -1    0    0    0  500  0.00000000000E+00  0.00000000000E+00  2.03797589880E+02  2.03797589880E+02  0.00000000000E+00  0.0000E+00  9.0
        2   -1    0    0  500    0  0.00000000000E+00  0.00000000000E+00 -1.22499693540E+03  1.22499693540E+03  0.00000000000E+00  0.0000E+00  9.0
       13    1    1    2    0    0  7.46803934320E+01  8.21835628630E+00 -1.21687436220E+03  1.21919150550E+03  1.05700000000E-01  0.0000E+00  9.0
      -13    1    1    2    0    0 -7.46803934320E+01 -8.21835628630E+00  1.95675016720E+02  2.09603019740E+02  1.05700000000E-01  0.0000E+00  9.0
</event>
<event>
 4    1   7.6478753E-02   1.0010000E+03  -1.0000000E+00   9.4080000E-02
       -1   -1    0    0    0  500  0.00000000000E+00  0.00000000000E+00  3.49022928760E+02  3.49022928760E+02  0.00000000000E+00  0.0000E+00  9.0
        1   -1    0    0  500    0  0.00000000000E+00  0.00000000000E+00 -7.18377397550E+02  7.18377397550E+02  0.00000000000E+00  0.0000E+00  9.0
       13    1    1    2    0    0 -3.58987120050E+00 -4.44863384130E+02 -4.29621884450E+02  6.18458804195E+02  1.05700000000E-01  0.0000E+00  9.0
      -13    1    1    2    0    0  3.58987120050E+00  4.44863384130E+02  6.02674156570E+01  4.48941522113E+02  1.05700000000E-01  0.0000E+00  9.0
</event>
<event>
 4    1   7.6478753E-02   1.0000000E+03  -1.0000000E+00   9.4090000E-02
        1   -1    0    0  500    0  0.00000000000E+00  0.00000000000E+00  1.72940524140E+02  1.72940524140E+02  0.00000000000E+00  0.0000E+00  9.0
       -1   -1    0    0    0  500  0.00000000000E+00  0.00000000000E+00 -1.44666235120E+03  1.44666235120E+03  0.00000000000E+00  0.0000E+00  9.0
       13    1    1    2    0    0 -1.23508367890E+02  1.57206139790E+01  1.47451896060E+02  1.92985821932E+02  1.05700000000E-01  0.0000E+00  9.0
      -13    1    1    2    0    0  1.23508367890E+02 -1.57206139790E+01 -1.42117372310E+03  1.42661705340E+03  1.05700000000E-01  0.0000E+00  9.0
</event>
<event>
 4    1   7.6478753E-02   9.9910000E+02  -1.0000000E+00   9.4110000E-02
        2   -1    0    0  500    0  0.00000000000E+00  0.00000000000E+00  7.52501472930E+02  7.52501472930E+02  0.00000000000E+00  0.0000E+00  9.0
       -2   -1    0    0    0  500  0.00000000000E+00  0.00000000000E+00 -3.31649473960E+02  3.31649473960E+02  0.00000000000E+00  0.0000E+00  9.0
       13    1    1    2    0    0 -7.58976032780E+01 -1.86827239410E+02  7.06375617240E+02  7.34596070894E+02  1.05700000000E-01  0.0000E+00  9.0
      -13    1    1    2    0    0  7.58976032780E+01  1.86827239410E+02 -2.85523618280E+02  3.49554876002E+02  1.05700000000E-01  0.0000E+00  9.0
</event>
<event>
 4    1   7.6478753E-02   1.0070000E+03  -1.0000000E+00   9.4020000E-02
        1   -1    0    0  500    0  0.00000000000E+00  0.00000000000E+00  3.48356808900E+02  3.48356808900E+02  0.00000000000E+00  0.0000E+00  9.0
       -1   -1    0    0    0  500  0.00000000000E+00  0.00000000000E+00 -7.27820279520E+02  7.27820279520E+02  0.00000000000E+00  0.0000E+00  9.0
       13    1    1    2    0    0  5.93212541850E+01  2.75178285530E+02 -6.35877746270E+02  6.95401049323E+02  1.05700000000E-01  0.0000E+00  9.0
      -13    1    1    2    0    0 -5.93212541850E+01 -2.75178285530E+02  2.56414275650E+02  3.80776039103E+02  1.05700000000E-01  0.0000E+00  9.0
</event>
<event>
 4    1   7.6478753E-02   9.9640000E+02  -1.0000000E+00   9.4140000E-02
       -2   -1    0    0    0  500  0.00000000000E+00  0.00000000000E+00  3.72116579220E+02  3.72116579220E+02  0.00000000000E+00  0.0000E+00  9.0
        2   -1    0    0  500    0  0.00000000000E+00  0.00000000000E+00 -6.66984631390E+02  6.66984631390E+02  0.00000000000E+00  0.0000E+00  9.0
       13    1    1    2    0    0 -1.16231775870E+02  4.64940120400E+02 -5.52356225120E+00  4.79280358654E+02  1.05700000000E-01  0.0000E+00  9.0
      -13    1    1    2    0    0  1.16231775870E+02 -4.64940120400E+02 -2.89344489910E+02  5.59820851964E+02  1.05700000000E-01  0.0000E+00  9.0
</event>
<event>
 4    1   7.6478753E-02   1.0000000E+03  -1.0000000E+00   9.4090000E-02
        2   -1    0    0  500    0  0.00000000000E+00  0.00000000000E+00  2.47734531740E+03  2.47734531740E+03  0.00000000000E+00  0.0000E+00  9.0
       -2   -1    0    0    0  500  0.00000000000E+00  0.00000000000E+00 -1.00991626600E+02  1.00991626600E+02  0.00000000000E+00  0.0000E+00  9.0
       13    1    1    2    0    0 -5.74374623610E+01  3.16294017620E+02  2.17584470760E+03  2.19946383704E+03  1.05700000000E-01  0.0000E+00  9.0
      -13    1    1    2    0    0  5.74374623610E+01 -3.16294017620E+02  2.00508983200E+02  3.78873106965E+02  1.05700000000E-01  0.0000E+00  9.0
</event>
<event>
 4    1   7.6478753E-02   9.9960000E+02  -1.0000000E+00   9.4100000E-02
        1   -1    0    0  500    0  0.00000000000E+00  0.00000000000E+00  1.37095477990E+03  1.37095477990E+03  0.00000000000E+00  0.0000E+00  9.0
       -1   -1    0    0    0  500  0.00000000000E+00  0.00000000000E+00 -1.82212412480E+02  1.82212412480E+02  0.00000000000E+00  0.0000E+00  9.0
       13    1    1    2    0    0 -3.91734630520E+02 -2.81150274020E+02  7.98758651190E+02  9.33014947015E+02  1.05700000000E-01  0.0000E+00  9.0
      -13    1    1    2    0    0  3.91734630520E+02  2.81150274020E+02  3.89983716230E+02  6.20152245362E+02  1.05700000000E-01  0.0000E+00  9.0
</event>
<event>
 4    1   7.6478753E-02   1.0000000E+03  -1.0000000E+00   9.4090000E-02
       -1   -1    0    0    0  500  0.00000000000E+00  0.00000000000E+00  3.32254637150E+02  3.32254637150E+02  0.00000000000E+00  0.0000E+00  9.0
        1   -1    0    0  500    0  0.00000000000E+00  0.00000000000E+00 -7.52835499020E+02  7.52835499020E+02  0.00000000000E+00  0.0000E+00  9.0
       13    1    1    2    0    0  4.98020083080E+02  1.36245682160E+01 -2.57866640650E+02  5.60985603686E+02  1.05700000000E-01  0.0000E+00  9.0
      -13    1    1    2    0    0 -4.98020083080E+02 -1.36245682160E+01 -1.62714221210E+02  5.24104532480E+02  1.05700000000E-01  0.0000E+00  9.0
</event>
<event>
 4    1   7.6478753E-02   1.0290000E+03  -1.0000000E+00   9.3790000E-02
       -1   -1    0    0    0  500  0.00000000000E+00  0.00000000000E+00  2.85571741620E+02  2.85571741620E+02  0.00000000000E+00  0.0000E+00  9.0
        1   -1    0    0  500    0  0.00000000000E+00  0.00000000000E+00 -9.27155560800E+02  9.27155560800E+02  0.00000000000E+00  0.0000E+00  9.0
       13    1    1    2    0    0  1.14296178970E+02 -4.96601986660E+02 -2.36699878800E+02  5.61875425231E+02  1.05700000000E-01  0.0000E+00  9.0
      -13    1    1    2    0    0 -1.14296178970E+02  4.96601986660E+02 -4.04883940390E+02  6.50851877189E+02  1.05700000000E-01  0.0000E+00  9.0
</event>
<event>
 4    1   7.6478753E-02   1.0010000E+03  -1.0000000E+00   9.4090000E-02
       -3   -1    0    0    0  500  0.00000000000E+00  0.00000000000E+00  1.04357826370E+02  1.04358018018E+02  2.00000000000E-01  0.0000E+00  9.0
        3   -1    0    0  500    0  0.00000000000E+00  0.00000000000E+00 -2.40081641510E+03  2.40081642343E+03  2.00000000000E-01  0.0000E+00  9.0
       13    1    1    2    0    0  2.52395036520E+02 -9.03128128020E+01 -9.04153475080E+01  2.82903879177E+02  1.05700000000E-01  0.0000E+00  9.0
      -13    1    1    2    0    0 -2.52395036520E+02  9.03128128020E+01 -2.20604324130E+03  2.22227056235E+03  1.05700000000E-01  0.0000E+00  9.0
</event>
<event>
 4    1   7.6478753E-02   1.0540000E+03  -1.0000000E+00   9.3530000E-02
       -1   -1    0    0    0  500  0.00000000000E+00  0.00000000000E+00  7.86486672370E+02  7.86486672370E+02  0.00000000000E+00  0.0000E+00  9.0
        1   -1    0    0  500    0  0.00000000000E+00  0.00000000000E+00 -3.53294268040E+02  3.53294268040E+02  0.00000000000E+00  0.0000E+00  9.0
       13    1    1    2    0    0 -4.21828685760E+02 -3.15088546030E+02  2.43967984360E+02  5.80293564099E+02  1.05700000000E-01  0.0000E+00  9.0
      -13    1    1    2    0    0  4.21828685760E+02  3.15088546030E+02  1.89224419970E+02  5.59487376314E+02  1.05700000000E-01  0.0000E+00  9.0
</event>
<event>
 4    1   7.6478753E-02   1.0020000E+03  -1.0000000E+00   9.4080000E-02
        1   -1    0    0  500    0  0.00000000000E+00  0.00000000000E+00  1.41651524080E+03  1.41651524080E+03  0.00000000000E+00  0.0000E+00  9.0
       -1   -1    0    0    0  500  0.00000000000E+00  0.00000000000E+00 -1.77135721160E+02  1.77135721160E+02  0.00000000000E+00  0.0000E+00  9.0
       13    1    1    2    0    0 -8.80442779950E+01 -8.64222235670E+01 -1.52589820700E+02  1.96225024316E+02  1.05700000000E-01  0.0000E+00  9.0
      -13    1    1    2    0    0  8.80442779950E+01  8.64222235670E+01  1.39196934030E+03  1.39742593762E+03  1.05700000000E-01  0.0000E+00  9.0
</event>
<event>
 4    1   7.6478753E-02   1.0010000E+03  -1.0000000E+00   9.4080000E-02
        1   -1    0    0  500    0  0.00000000000E+00  0.00000000000E+00  5.09076363990E+02  5.09076363990E+02  0.00000000000E+00  0.0000E+00  9.0
       -1   -1    0    0    0  500  0.00000000000E+00  0.00000000000E+00 -4.92375823540E+02  4.92375823540E+02  0.00000000000E+00  0.0000E+00  9.0
       13    1    1    2    0    0 -4.39401543000E+02  2.28629564440E+02  8.12417419700E+01  5.01941655511E+02  1.05700000000E-01  0.0000E+00  9.0
      -13    1    1    2    0    0  4.39401543000E+02 -2.28629564440E+02 -6.45412015160E+01  4.99510532014E+02  1.05700000000E-01  0.0000E+00  9.0
</event>
<event>
 4    1   7.6478753E-02   1.0000000E+03  -1.0000000E+00   9.4090000E-02
       -1   -1    0    0    0  500  0.00000000000E+00  0.00000000000E+00  3.91608584760E+02  3.91608584760E+02  0.00000000000E+00  0.0000E+00  9.0
        1   -1    0    0  500    0  0.00000000000E+00  0.00000000000E+00 -6.39030851340E+02  6.39030851340E+02  0.00000000000E+00  0.0000E+00  9.0
       13    1    1    2    0    0 -4.99981585400E+02  1.57022130480E+01 -1.28522036570E+02  5.16474656000E+02  1.05700000000E-01  0.0000E+00  9.0
      -13    1    1    2    0    0  4.99981585400E+02 -1.57022130480E+01 -1.18900230010E+02  5.14164780107E+02  1.05700000000E-01  0.0000E+00  9.0
</event>
<event>
 4    1   7.6478753E-02   9.9970000E+02  -1.0000000E+00   9.4100000E-02
        2   -1    0    0  500    0  0.00000000000E+00  0.00000000000E+00  3.13393352830E+03  3.13393352830E+03  0.00000000000E+00  0.0000E+00  9.0
       -2   -1    0    0    0  500  0.00000000000E+00  0.00000000000E+00 -7.97262098990E+01  7.97262098990E+01  0.00000000000E+00  0.0000E+00  9.0
       13    1    1    2    0    0 -2.39674930670E+02  1.06427533820E+02  2.89504215400E+03  2.90689524699E+03  1.05700000000E-01  0.0000E+00  9.0
      -13    1    1    2    0    0  2.39674930670E+02 -1.06427533820E+02  1.59165164430E+02  3.06764491242E+02  1.05700000000E-01  0.0000E+00  9.0
</event>
<event>
 4    1   7.6478753E-02   9.9800000E+02  -1.0000000E+00   9.4120000E-02
        1   -1    0    0  500    0  0.00000000000E+00  0.00000000000E+00  9.87184758050E+02  9.87184758050E+02  0.00000000000E+00  0.0000E+00  9.0
       -1   -1    0    0    0  500  0.00000000000E+00  0.00000000000E+00 -2.52212873140E+02  2.52212873140E+02  0.00000000000E+00  0.0000E+00  9.0
       13    1    1    2    0    0  2.49188052400E+02  2.73689473690E+01  9.03300014550E+02  9.37440489950E+02  1.05700000000E-01  0.0000E+00  9.0
      -13    1    1    2    0    0 -2.49188052400E+02 -2.73689473690E+01 -1.68328129640E+02  3.01957141230E+02  1.05700000000E-01  0.0000E+00  9.0
</event>
<event>
 4    1   7.6478753E-02   9.8840000E+02  -1.0000000E+00   9.4220000E-02
       -1   -1    0    0    0  500  0.00000000000E+00  0.00000000000E+00  6.44247929100E+02  6.44247929100E+02  0.00000000000E+00  0.0000E+00  9.0
        1   -1    0    0  500    0  0.00000000000E+00  0.00000000000E+00 -3.79065796520E+02  3.79065796520E+02  0.00000000000E+00  0.0000E+00  9.0
       13    1    1    2    0    0 -2.21162055650E+02 -4.38569927280E+02  1.88884155460E+02  5.26244687698E+02  1.05700000000E-01  0.0000E+00  9.0
      -13    1    1    2    0    0  2.21162055650E+02  4.38569927280E+02  7.62979771210E+01  4.97069037920E+02  1.05700000000E-01  0.0000E+00  9.0
</event>
<event>
 4    1   7.6478753E-02   9.9510000E+02  -1.0000000E+00   9.4150000E-02
        1   -1    0    0  500    0  0.00000000000E+00  0.00000000000E+00  3.01641904910E+02  3.01641904910E+02  0.00000000000E+00  0.0000E+00  9.0
       -1   -1    0    0    0  500  0.00000000000E+00  0.00000000000E+00 -8.20662799880E+02  8.20662799880E+02  0.00000000000E+00  0.0000E+00  9.0
       13    1    1    2    0    0  2.44091522120E+02 -6.70620113330E+01  2.23585159930E+02  3.37740017541E+02  1.05700000000E-01  0.0000E+00  9.0
      -13    1    1    2    0    0 -2.44091522120E+02  6.70620113330E+01 -7.42606054900E+02  7.84564687251E+02  1.05700000000E-01  0.0000E+00  9.0
</event>
<event>
 4    1   7.6478753E-02   9.9850000E+02  -1.0000000E+00   9.4110000E-02
       -1   -1    0    0    0  500  0.00000000000E+00  0.00000000000E+00  4.20013460300E+02  4.20013460300E+02  0.00000000000E+00  0.0000E+00  9.0
        1   -1    0    0  500    0  0.00000000000E+00  0.00000000000E+00 -5.93420359530E+02  5.93420359530E+02  0.00000000000E+00  0.0000E+00  9.0
       13    1    1    2    0    0 -3.73165020770E+02 -2.40933046520E+02 -3.18026469490E+02  5.46298189728E+02  1.05700000000E-01  0.0000E+00  9.0
      -13    1    1    2    0    0  3.73165020770E+02  2.40933046520E+02  1.44619570260E+02  4.67135630097E+02  1.05700000000E-01  0.0000E+00  9.0
</event>
<event>
 4    1   7.6478753E-02   1.0700000E+03  -1.0000000E+00   9.3370000E-02
        1   -1    0    0  500    0  0.00000000000E+00  0.00000000000E+00  7.31323560760E+02  7.31323560760E+02  0.00000000000E+00  0.0000E+00  9.0
       -1   -1    0    0    0  500  0.00000000000E+00  0.00000000000E+00 -3.91541033940E+02  3.91541033940E+02  0.00000000000E+00  0.0000E+00  9.0
       13    1    1    2    0    0  4.09786368990E+02  2.83915728940E+01 -1.89924508860E+02  4.52550858865E+02  1.05700000000E-01  0.0000E+00  9.0
      -13    1    1    2    0    0 -4.09786368990E+02 -2.83915728940E+01  5.29707035680E+02  6.70313735830E+02  1.05700000000E-01  0.0000E+00  9.0
</event>
<event>
 4    1   7.6478753E-02   9.8980000E+02  -1.0000000E+00   9.4210000E-02
        1   -1    0    0  500    0  0.00000000000E+00  0.00000000000E+00  2.59166856020E+02  2.59166856020E+02  0.00000000000E+00  0.0000E+00  9.0
       -1   -1    0    0    0  500  0.00000000000E+00  0.00000000000E+00 -9.45077366630E+02  9.45077366630E+02  0.00000000000E+00  0.0000E+00  9.0
       13    1    1    2    0    0 -2.44543567270E+02 -4.29431397180E+02 -3.75597377310E+02  6.20714332195E+02  1.05700000000E-01  0.0000E+00  9.0
      -13    1    1    2    0    0  2.44543567270E+02  4.29431397180E+02 -3.10313133290E+02  5.83529890444E+02  1.05700000000E-01  0.0000E+00  9.0
</event>
<event>
 4    1   7.6478753E-02   9.9750000E+02  -1.0000000E+00   9.4120000E-02
       -1   -1    0    0    0  500  0.00000000000E+00  0.00000000000E+00  1.19405387710E+03  1.19405387710E+03  0.00000000000E+00  0.0000E+00  9.0
        1   -1    0    0  500    0  0.00000000000E+00  0.00000000000E+00 -2.08330645470E+02  2.08330645470E+02  0.00000000000E+00  0.0000E+00  9.0
       13    1    1    2    0    0 -3.31828159200E+02  2.08010947670E+02  5.86752874490E+01  3.96006669285E+02  1.05700000000E-01  0.0000E+00  9.0
      -13    1    1    2    0    0  3.31828159200E+02 -2.08010947670E+02  9.27047944130E+02  1.00637785323E+03  1.05700000000E-01  0.0000E+00  9.0
</event>
<event>
 4    1   7.6478753E-02   1.0010000E+03  -1.0000000E+00   9.4090000E-02
        2   -1    0    0  500    0  0.00000000000E+00  0.00000000000E+00  1.87104743520E+03  1.87104743520E+03  0.00000000000E+00  0.0000E+00  9.0
       -2   -1    0    0    0  500  0.00000000000E+00  0.00000000000E+00 -1.33873973980E+02  1.33873973980E+02  0.00000000000E+00  0.0000E+00  9.0
       13    1    1    2    0    0 -1.41858683280E+02  4.03727907000E+02  1.38845369290E+03  1.45290184714E+03  1.05700000000E-01  0.0000E+00  9.0
      -13    1    1    2    0    0  1.41858683280E+02 -4.03727907000E+02  3.48719768370E+02  5.52019562096E+02  1.05700000000E-01  0.0000E+00  9.0
</event>
<event>
 4    1   7.6478753E-02   9.9950000E+02  -1.0000000E+00   9.4100000E-02
        1   -1    0    0  500    0  0.00000000000E+00  0.00000000000E+00  6.72101531760E+02  6.72101531760E+02  0.00000000000E+00  0.0000E+00  9.0
       -1   -1    0    0    0  500  0.00000000000E+00  0.00000000000E+00 -3.71598706360E+02  3.71598706360E+02  0.00000000000E+00  0.0000E+00  9.0
       13    1    1    2    0    0 -4.10520374410E+02 -2.27278761760E+02 -2.93098961390E+01  4.70150714704E+02  1.05700000000E-01  0.0000E+00  9.0
      -13    1    1    2    0    0  4.10520374410E+02  2.27278761760E+02  3.29812721540E+02  5.73549523420E+02  1.05700000000E-01  0.0000E+00  9.0
</event>
<event>
 4    1   7.6478753E-02   9.8660000E+02  -1.0000000E+00   9.4240000E-02
        1   -1    0    0  500    0  0.00000000000E+00  0.00000000000E+00  9.07596595110E+02  9.07596595110E+02  0.00000000000E+00  0.0000E+00  9.0
       -1   -1    0    0    0  500  0.00000000000E+00  0.00000000000E+00 -2.68137348630E+02  2.68137348630E+02  0.00000000000E+00  0.0000E+00  9.0
       13    1    1    2    0    0 -3.78707288050E+02 -1.06236752310E+02 -3.50884878560E+01  3.94888174951E+02  1.05700000000E-01  0.0000E+00  9.0
      -13    1    1    2    0    0  3.78707288050E+02  1.06236752310E+02  6.74547734340E+02  7.80845768791E+02  1.05700000000E-01  0.0000E+00  9.0
</event>
<event>
 4    1   7.6478753E-02   1.0050000E+03  -1.0000000E+00   9.4050000E-02
        1   -1    0    0  500    0  0.00000000000E+00  0.00000000000E+00  2.59746920890E+02  2.59746920890E+02  0.00000000000E+00  0.0000E+00  9.0
       -1   -1    0    0    0  500  0.00000000000E+00  0.00000000000E+00 -9.71844596310E+02  9.71844596310E+02  0.00000000000E+00  0.0000E+00  9.0
       13    1    1    2    0    0 -3.01087278400E+02  1.18184277500E+02  1.15165767710E+02  3.43342741131E+02  1.05700000000E-01  0.0000E+00  9.0
      -13    1    1    2    0    0  3.01087278400E+02 -1.18184277500E+02 -8.27263443130E+02  8.88248776061E+02  1.05700000000E-01  0.0000E+00  9.0
</event>
<event>
 4    1   7.6478753E-02   9.7670000E+02  -1.0000000E+00   9.4350000E-02
       -2   -1    0    0    0  500  0.00000000000E+00  0.00000000000E+00  1.21960964410E+02  1.21960964410E+02  0.00000000000E+00  0.0000E+00  9.0
        2   -1    0    0  500    0  0.00000000000E+00  0.00000000000E+00 -1.95538856830E+03  1.95538856830E+03  0.00000000000E+00  0.0000E+00  9.0
       13    1    1    2    0    0 -2.08777230790E+02  1.41425356620E+02 -1.80619668120E+03  1.82371476003E+03  1.05700000000E-01  0.0000E+00  9.0
      -13    1    1    2    0    0  2.08777230790E+02 -1.41425356620E+02 -2.72309226950E+01  2.53634772685E+02  1.05700000000E-01  0.0000E+00  9.0
</event>
<event>
 4    1   7.6478753E-02   9.9050000E+02  -1.0000000E+00   9.4200000E-02
        1   -1    0    0  500    0  0.00000000000E+00  0.00000000000E+00  6.01667821050E+02  6.01667821050E+02  0.00000000000E+00  0.0000E+00  9.0
       -1   -1    0    0    0  500  0.00000000000E+00  0.00000000000E+00 -4.07637845360E+02  4.07637845360E+02  0.00000000000E+00  0.0000E+00  9.0
       13    1    1    2    0    0  1.41624786420E+02 -4.74287737030E+02  8.07068865890E+01  5.01517746786E+02  1.05700000000E-01  0.0000E+00  9.0
      -13    1    1    2    0    0 -1.41624786420E+02  4.74287737030E+02  1.13323089100E+02  5.07787919629E+02  1.05700000000E-01  0.0000E+00  9.0
</event>
<event>
 4    1   7.6478753E-02   1.0000000E+03  -1.0000000E+00   9.4100000E-02
       -1   -1    0    0    0  500  0.00000000000E+00  0.00000000000E+00  8.09624960710E+02  8.09624960710E+02  0.00000000000E+00  0.0000E+00  9.0
        1   -1    0    0  500    0  0.00000000000E+00  0.00000000000E+00 -3.08799857900E+02  3.08799857900E+02  0.00000000000E+00  0.0000E+00  9.0
       13    1    1    2    0    0  2.32062040940E+02 -4.42892684540E+02  2.52997183510E+02  5.60369794779E+02  1.05700000000E-01  0.0000E+00  9.0
      -13    1    1    2    0    0 -2.32062040940E+02  4.42892684540E+02  2.47827919300E+02  5.58055023829E+02  1.05700000000E-01  0.0000E+00  9.0
</event>
<event>
 4    1   7.6478753E-02   9.9880000E+02  -1.0000000E+00   9.4110000E-02
        1   -1    0    0  500    0  0.00000000000E+00  0.00000000000E+00  1.27160663230E+02  1.27160663230E+02  0.00000000000E+00  0.0000E+00  9.0
       -1   -1    0    0    0  500  0.00000000000E+00  0.00000000000E+00 -1.96142049750E+03  1.96142049750E+03  0.00000000000E+00  0.0000E+00  9.0
       13    1    1    2    0    0  4.57260208030E+02  4.03763136080E+01 -1.32847468870E+03  1.40554692353E+03  1.05700000000E-01  0.0000E+00  9.0
      -13    1    1    2    0    0 -4.57260208030E+02 -4.03763136080E+01 -5.05785145590E+02  6.83034237224E+02  1.05700000000E-01  0.0000E+00  9.0
</event>
<event>
 4    1   7.6478753E-02   9.8070000E+02  -1.0000000E+00   9.4310000E-02
       -1   -1    0    0    0  500  0.00000000000E+00  0.00000000000E+00  8.85707647080E+02  8.85707647080E+02  0.00000000000E+00  0.0000E+00  9.0
        1   -1    0    0  500    0  0.00000000000E+00  0.00000000000E+00 -2.71466653200E+02  2.71466653200E+02  0.00000000000E+00  0.0000E+00  9.0
       13    1    1    2    0    0  3.19524066450E+02  3.00659103430E+02  5.65497049810E+02  7.15736299228E+02  1.05700000000E-01  0.0000E+00  9.0
      -13    1    1    2    0    0 -3.19524066450E+02 -3.00659103430E+02  4.87439440760E+01  4.41438001052E+02  1.05700000000E-01  0.0000E+00  9.0
</event>
<event>
 4    1   7.6478753E-02   9.8020000E+02  -1.0000000E+00   9.4310000E-02
        2   -1    0    0  500    0  0.00000000000E+00  0.00000000000E+00  1.04876018610E+03  1.04876018610E+03  0.00000000000E+00  0.0000E+00  9.0
       -2   -1    0    0    0  500  0.00000000000E+00  0.00000000000E+00 -2.29016683740E+02  2.29016683740E+02  0.00000000000E+00  0.0000E+00  9.0
       13    1    1    2    0    0 -3.07482095640E+02 -3.09912030910E+02  7.00182394910E+02  8.25133991153E+02  1.05700000000E-01  0.0000E+00  9.0
      -13    1    1    2    0    0  3.07482095640E+02  3.09912030910E+02  1.19561107440E+02  4.52642878688E+02  1.05700000000E-01  0.0000E+00  9.0
</event>
<event>
 4    1   7.6478753E-02   1.0000000E+03  -1.0000000E+00   9.4090000E-02
       -2   -1    0    0    0  500  0.00000000000E+00  0.00000000000E+00  1.66005689700E+02  1.66005689700E+02  0.00000000000E+00  0.0000E+00  9.0
        2   -1    0    0  500    0  0.00000000000E+00  0.00000000000E+00 -1.50694930500E+03  1.50694930500E+03  0.00000000000E+00  0.0000E+00  9.0
       13    1    1    2    0    0  2.31056187650E+02 -2.12285249510E+02 -1.32187635400E+03  1.35860557023E+03  1.05700000000E-01  0.0000E+00  9.0
      -13    1    1    2    0    0 -2.31056187650E+02  2.12285249510E+02 -1.90672612440E+01  3.14349424422E+02  1.05700000000E-01  0.0000E+00  9.0
</event>
<event>
 4    1   7.6478753E-02   9.9830000E+02  -1.0000000E+00   9.4120000E-02
        1   -1    0    0  500    0  0.00000000000E+00  0.00000000000E+00  2.01768370200E+03  2.01768370200E+03  0.00000000000E+00  0.0000E+00  9.0
       -1   -1    0    0    0  500  0.00000000000E+00  0.00000000000E+00 -1.23471566240E+02  1.23471566240E+02  0.00000000000E+00  0.0000E+00  9.0
       13    1    1    2    0    0 -2.24880334920E+02  3.48011726670E+02  3.50208416390E+02  5.42521218955E+02  1.05700000000E-01  0.0000E+00  9.0
      -13    1    1    2    0    0  2.24880334920E+02 -3.48011726670E+02  1.54400371940E+03  1.59863404931E+03  1.05700000000E-01  0.0000E+00  9.0
</event>
<event>
 4    1   7.6478753E-02   9.9990000E+02  -1.0000000E+00   9.4100000E-02
       -4   -1    0    0    0  500  0.00000000000E+00  0.00000000000E+00  1.15022253310E+03  1.15022326774E+03  1.30000000000E+00  0.0000E+00  9.0
        4   -1    0    0  500    0  0.00000000000E+00  0.00000000000E+00 -2.17314428950E+02  2.17318317290E+02  1.30000000000E+00  0.0000E+00  9.0
       13    1    1    2    0    0 -2.68918384160E+02  2.97739173200E+02  5.84530606570E+01  4.05441098151E+02  1.05700000000E-01  0.0000E+00  9.0
      -13    1    1    2    0    0  2.68918384160E+02 -2.97739173200E+02  8.74455043520E+02  9.62100486907E+02  1.05700000000E-01  0.0000E+00  9.0
</event>
<event>
 4    1   7.6478753E-02   9.8760000E+02  -1.0000000E+00   9.4230000E-02
        1   -1    0    0  500    0  0.00000000000E+00  0.00000000000E+00  2.45632006720E+02  2.45632006720E+02  0.00000000000E+00  0.0000E+00  9.0
       -1   -1    0    0    0  500  0.00000000000E+00  0.00000000000E+00 -9.92744376190E+02  9.92744376190E+02  0.00000000000E+00  0.0000E+00  9.0
       13    1    1    2    0    0  2.77330188970E+02 -1.77554482070E+02 -8.34969680710E+02  8.97558915445E+02  1.05700000000E-01  0.0000E+00  9.0
      -13    1    1    2    0    0 -2.77330188970E+02  1.77554482070E+02  8.78573112440E+01  3.40817467464E+02  1.05700000000E-01  0.0000E+00  9.0
</event>
<event>
 4    1   7.6478753E-02   9.9740000E+02  -1.0000000E+00   9.4130000E-02
        2   -1    0    0  500    0  0.00000000000E+00  0.00000000000E+00  1.09409369810E+03  1.09409369810E+03  0.00000000000E+00  0.0000E+00  9.0
       -2   -1    0    0    0  500  0.00000000000E+00  0.00000000000E+00 -2.27321606640E+02  2.27321606640E+02  0.00000000000E+00  0.0000E+00  9.0
       13    1    1    2    0    0  3.61849738620E+02 -2.40109352290E+02  7.58236483430E+02  8.73790770364E+02  1.05700000000E-01  0.0000E+00  9.0
      -13    1    1    2    0    0 -3.61849738620E+02  2.40109352290E+02  1.08535608030E+02  4.47624534381E+02  1.05700000000E-01  0.0000E+00  9.0
</event>
<event>
 4    1   7.6478753E-02   6.6800000E+02  -1.0000000E+00   9.8670000E-02
        2   -1    0    0  500    0  0.00000000000E+00  0.00000000000E+00  2.47415093470E+02  2.47415093470E+02  0.00000000000E+00  0.0000E+00  9.0
       -2   -1    0    0    0  500  0.00000000000E+00  0.00000000000E+00 -4.50911945210E+02  4.50911945210E+02  0.00000000000E+00  0.0000E+00  9.0
       13    1    1    2    0    0 -1.55074755420E+02  2.58189376820E+02  4.92069939090E+01  3.05174169112E+02  1.05700000000E-01  0.0000E+00  9.0
      -13    1    1    2    0    0  1.55074755420E+02 -2.58189376820E+02 -2.52703845650E+02  3.93152869569E+02  1.05700000000E-01  0.0000E+00  9.0
</event>
<event>
 4    1   7.6478753E-02   1.0010000E+03  -1.0000000E+00   9.4080000E-02
       -1   -1    0    0    0  500  0.00000000000E+00  0.00000000000E+00  1.10562732820E+03  1.10562732820E+03  0.00000000000E+00  0.0000E+00  9.0
        1   -1    0    0  500    0  0.00000000000E+00  0.00000000000E+00 -2.26755320500E+02  2.26755320500E+02  0.00000000000E+00  0.0000E+00  9.0
       13    1    1    2    0    0  7.81496725140E+01 -4.83893178870E+02  5.75426738280E+02  7.55894121006E+02  1.05700000000E-01  0.0000E+00  9.0
      -13    1    1    2    0    0 -7.81496725140E+01  4.83893178870E+02  3.03445269450E+02  5.76488527722E+02  1.05700000000E-01  0.0000E+00  9.0
</event>
<event>
 4    1   7.6478753E-02   1.0020000E+03  -1.0000000E+00   9.4070000E-02
       -1   -1    0    0    0  500  0.00000000000E+00  0.00000000000E+00  8.13683320590E+02  8.13683320590E+02  0.00000000000E+00  0.0000E+00  9.0
        1   -1    0    0  500    0  0.00000000000E+00  0.00000000000E+00 -3.08640602740E+02  3.08640602740E+02  0.00000000000E+00  0.0000E+00  9.0
       13    1    1    2    0    0 -2.93447321280E+02 -2.83121066670E+02  5.78735647990E+02  7.07957505918E+02  1.05700000000E-01  0.0000E+00  9.0
      -13    1    1    2    0    0  2.93447321280E+02  2.83121066670E+02 -7.36929301400E+01  4.14366417418E+02  1.05700000000E-01  0.0000E+00  9.0
</event>
<event>
 4    1   7.6478753E-02   1.0060000E+03  -1.0000000E+00   9.4040000E-02
       -1   -1    0    0    0  500  0.00000000000E+00  0.00000000000E+00  9.66699716620E+02  9.66699716620E+02  0.00000000000E+00  0.0000E+00  9.0
        1   -1    0    0  500    0  0.00000000000E+00  0.00000000000E+00 -2.61615415750E+02  2.61615415750E+02  0.00000000000E+00  0.0000E+00  9.0
       13    1    1    2    0    0 -4.72259296230E+02 -1.70551432700E+02  3.18284075740E+02  5.94492555137E+02  1.05700000000E-01  0.0000E+00  9.0
      -13    1    1    2    0    0  4.72259296230E+02  1.70551432700E+02  3.86800225140E+02  6.33822577235E+02  1.05700000000E-01  0.0000E+00  9.0
</event>
<event>
 4    1   7.6478753E-02   9.7520000E+02  -1.0000000E+00   9.4370000E-02
       -1   -1    0    0    0  500  0.00000000000E+00  0.00000000000E+00  3.12475153280E+02  3.12475153280E+02  0.00000000000E+00  0.0000E+00  9.0
        1   -1    0    0  500    0  0.00000000000E+00  0.00000000000E+00 -7.60900261580E+02  7.60900261580E+02  0.00000000000E+00  0.0000E+00  9.0
       13    1    1    2    0    0 -4.11182149630E+02 -2.61103218020E+02 -2.49233065840E+02  5.47140551335E+02  1.05700000000E-01  0.0000E+00  9.0
      -13    1    1    2    0    0  4.11182149630E+02  2.61103218020E+02 -1.99192042470E+02  5.26234863526E+02  1.05700000000E-01  0.0000E+00  9.0
</event>
<event>
 4    1   7.6478753E-02   1.0070000E+03  -1.0000000E+00   9.4020000E-02
       -1   -1    0    0    0  500  0.00000000000E+00  0.00000000000E+00  3.62602037220E+02  3.62602037220E+02  0.00000000000E+00  0.0000E+00  9.0
        1   -1    0    0  500    0  0.00000000000E+00  0.00000000000E+00 -6.99204344690E+02  6.99204344690E+02  0.00000000000E+00  0.0000E+00  9.0
       13    1    1    2    0    0  2.96312194150E+02 -1.80369915110E+02  2.16510421140E+02  4.08914411966E+02  1.05700000000E-01  0.0000E+00  9.0
      -13    1    1    2    0    0 -2.96312194150E+02  1.80369915110E+02 -5.53112728610E+02  6.52891969932E+02  1.05700000000E-01  0.0000E+00  9.0
</event>
<event>
 4    1   7.6478753E-02   1.0040000E+03  -1.0000000E+00   9.4050000E-02
        1   -1    0    0  500    0  0.00000000000E+00  0.00000000000E+00  1.41037276790E+03  1.41037276790E+03  0.00000000000E+00  0.0000E+00  9.0
       -1   -1    0    0    0  500  0.00000000000E+00  0.00000000000E+00 -1.78743132750E+02  1.78743132750E+02  0.00000000000E+00  0.0000E+00  9.0
       13    1    1    2    0    0  1.99884084220E+02 -4.58669286240E+02  6.82266180550E+02  8.46060466846E+02  1.05700000000E-01  0.0000E+00  9.0
      -13    1    1    2    0    0 -1.99884084220E+02  4.58669286240E+02  5.49363454580E+02  7.43055433777E+02  1.05700000000E-01  0.0000E+00  9.0
</event>
<event>
 4    1   7.6478753E-02   1.0000000E+03  -1.0000000E+00   9.4100000E-02
       -1   -1    0    0    0  500  0.00000000000E+00  0.00000000000E+00  5.70005231310E+02  5.70005231310E+02  0.00000000000E+00  0.0000E+00  9.0
        1   -1    0    0  500    0  0.00000000000E+00  0.00000000000E+00 -4.38729583450E+02  4.38729583450E+02  0.00000000000E+00  0.0000E+00  9.0
       13    1    1    2    0    0  1.56486768700E+02  4.32536129510E+02 -1.32265820800E+02  4.78612443041E+02  1.05700000000E-01  0.0000E+00  9.0
      -13    1    1    2    0    0 -1.56486768700E+02 -4.32536129510E+02  2.63541468670E+02  5.30122371713E+02  1.05700000000E-01  0.0000E+00  9.0
</event>
<event>
 4    1   7.6478753E-02   9.9620000E+02  -1.0000000E+00   9.4140000E-02
       -2   -1    0    0    0  500  0.00000000000E+00  0.00000000000E+00  1.74258621880E+02  1.74258621880E+02  0.00000000000E+00  0.0000E+00  9.0
        2   -1    0    0  500    0  0.00000000000E+00  0.00000000000E+00 -1.42383692760E+03  1.42383692760E+03  0.00000000000E+00  0.0000E+00  9.0
       13    1    1    2    0    0  7.22823714040E+01 -1.84931667130E+01  1.65244018320E+02  1.81307294927E+02  1.05700000000E-01  0.0000E+00  9.0
      -13    1    1    2    0    0 -7.22823714040E+01  1.84931667130E+01 -1.41482232410E+03  1.41678825460E+03  1.05700000000E-01  0.0000E+00  9.0
</event>
<event>
 4    1   7.6478753E-02   1.0240000E+03  -1.0000000E+00   9.3840000E-02
        1   -1    0    0  500    0  0.00000000000E+00  0.00000000000E+00  2.77234800730E+02  2.77234800730E+02  0.00000000000E+00  0.0000E+00  9.0
       -1   -1    0    0    0  500  0.00000000000E+00  0.00000000000E+00 -9.45854741330E+02  9.45854741330E+02  0.00000000000E+00  0.0000E+00  9.0
       13    1    1    2    0    0 -4.64443886620E+02  6.47716278060E+01 -8.86316708720E+01  4.77241104518E+02  1.05700000000E-01  0.0000E+00  9.0
      -13    1    1    2    0    0  4.64443886620E+02 -6.47716278060E+01 -5.79988269730E+02  7.45848437542E+02  1.05700000000E-01  0.0000E+00  9.0
</event>
<event>
 4    1   7.6478753E-02   1.0030000E+03  -1.0000000E+00   9.4070000E-02
       -1   -1    0    0    0  500  0.00000000000E+00  0.00000000000E+00  2.24791551300E+02  2.24791551300E+02  0.00000000000E+00  0.0000E+00  9.0
        1   -1    0    0  500    0  0.00000000000E+00  0.00000000000E+00 -1.11833160090E+03  1.11833160090E+03  0.00000000000E+00  0.0000E+00  9.0
       13    1    1    2    0    0 -1.31887524040E+02  4.46200301910E+01 -1.09191951950E+03  1.10076042549E+03  1.05700000000E-01  0.0000E+00  9.0
      -13    1    1    2    0    0  1.31887524040E+02 -4.46200301910E+01  1.98379469850E+02  2.42362726759E+02  1.05700000000E-01  0.0000E+00  9.0
</event>
<event>
 4    1   7.6478753E-02   9.9880000E+02  -1.0000000E+00   9.4110000E-02
        2   -1    0    0  500    0  0.00000000000E+00  0.00000000000E+00  1.74322611170E+02  1.74322611170E+02  0.00000000000E+00  0.0000E+00  9.0
       -2   -1    0    0    0  500  0.00000000000E+00  0.00000000000E+00 -1.43066195120E+03  1.43066195120E+03  0.00000000000E+00  0.0000E+00  9.0
       13    1    1    2    0    0 -4.83503049260E+02  1.19613727270E+02 -5.69918411540E+02  7.56894741282E+02  1.05700000000E-01  0.0000E+00  9.0
      -13    1    1    2    0    0  4.83503049260E+02 -1.19613727270E+02 -6.86420928470E+02  8.48089821074E+02  1.05700000000E-01  0.0000E+00  9.0
</event>
<event>
 4    1   7.6478753E-02   9.9940000E+02  -1.0000000E+00   9.4100000E-02
       -1   -1    0    0    0  500  0.00000000000E+00  0.00000000000E+00  5.80087862370E+02  5.80087862370E+02  0.00000000000E+00  0.0000E+00  9.0
        1   -1    0    0  500    0  0.00000000000E+00  0.00000000000E+00 -4.30463601260E+02  4.30463601260E+02  0.00000000000E+00  0.0000E+00  9.0
       13    1    1    2    0    0  1.13090647900E+02  3.27311701800E+02 -2.89458649970E+02  4.51341075012E+02  1.05700000000E-01  0.0000E+00  9.0
      -13    1    1    2    0    0 -1.13090647900E+02 -3.27311701800E+02  4.39082911080E+02  5.59210388631E+02  1.05700000000E-01  0.0000E+00  9.0
</event>
<event>
 4    1   7.6478753E-02   9.9910000E+02  -1.0000000E+00   9.4110000E-02
       -2   -1    0    0    0  500  0.00000000000E+00  0.00000000000E+00  2.70955503260E+02  2.70955503260E+02  0.00000000000E+00  0.0000E+00  9.0
        2   -1    0    0  500    0  0.00000000000E+00  0.00000000000E+00 -9.21077777370E+02  9.21077777370E+02  0.00000000000E+00  0.0000E+00  9.0
       13    1    1    2    0    0 -2.45407023880E+02 -4.24620583670E+02 -2.11602506280E+02  5.34137509713E+02  1.05700000000E-01  0.0000E+00  9.0
      -13    1    1    2    0    0  2.45407023880E+02  4.24620583670E+02 -4.38519767820E+02  6.57895770915E+02  1.05700000000E-01  0.0000E+00  9.0
</event>
<event>
 4    1   7.6478753E-02   9.8570000E+02  -1.0000000E+00   9.4250000E-02
       -1   -1    0    0    0  500  0.00000000000E+00  0.00000000000E+00  2.27374525010E+02  2.27374525010E+02  0.00000000000E+00  0.0000E+00  9.0
        1   -1    0    0  500    0  0.00000000000E+00  0.00000000000E+00 -1.06828512170E+03  1.06828512170E+03  0.00000000000E+00  0.0000E+00  9.0
       13    1    1    2    0    0  2.99619325740E+02  3.72136141700E+02 -2.61390973950E+02  5.44593702453E+02  1.05700000000E-01  0.0000E+00  9.0
      -13    1    1    2    0    0 -2.99619325740E+02 -3.72136141700E+02 -5.79519622720E+02  7.51065944246E+02  1.05700000000E-01  0.0000E+00  9.0
</event>
<event>
 4    1   7.6478753E-02   9.7770000E+02  -1.0000000E+00   9.4340000E-02
       -2   -1    0    0    0  500  0.00000000000E+00  0.00000000000E+00  9.23217025530E+01  9.23217025530E+01  0.00000000000E+00  0.0000E+00  9.0
        2   -1    0    0  500    0  0.00000000000E+00  0.00000000000E+00 -2.58855374300E+03  2.58855374300E+03  0.00000000000E+00  0.0000E+00  9.0
       13    1    1    2    0    0  2.69489508150E+02 -3.23251398030E+02 -1.93011511330E+03  1.97546460943E+03  1.05700000000E-01  0.0000E+00  9.0
      -13    1    1    2    0    0 -2.69489508150E+02  3.23251398030E+02 -5.66116927070E+02  7.05410836052E+02  1.05700000000E-01  0.0000E+00  9.0
</event>
<event>
 4    1   7.6478753E-02   9.8750000E+02  -1.0000000E+00   9.4230000E-02
       -1   -1    0    0    0  500  0.00000000000E+00  0.00000000000E+00  9.39488877400E+02  9.39488877400E+02  0.00000000000E+00  0.0000E+00  9.0
        1   -1    0    0  500    0  0.00000000000E+00  0.00000000000E+00 -2.59478920200E+02  2.59478920200E+02  0.00000000000E+00  0.0000E+00  9.0
       13    1    1    2    0    0 -1.10000970810E+02  3.40673877960E+02  7.52857171440E+02  8.33638312738E+02  1.05700000000E-01  0.0000E+00  9.0
      -13    1    1    2    0    0  1.10000970810E+02 -3.40673877960E+02 -7.28472142420E+01  3.65329484847E+02  1.05700000000E-01  0.0000E+00  9.0
</event>
<event>
 4    1   7.6478753E-02   9.9930000E+02  -1.0000000E+00   9.4100000E-02
        1   -1    0    0  500    0  0.00000000000E+00  0.00000000000E+00  1.09112190070E+03  1.09112190070E+03  0.00000000000E+00  0.0000E+00  9.0
       -1   -1    0    0    0  500  0.00000000000E+00  0.00000000000E+00 -2.28813265860E+02  2.28813265860E+02  0.00000000000E+00  0.0000E+00  9.0
       13    1    1    2    0    0 -4.68795277940E+02  8.25475139290E+01  2.30492963820E+02  5.28876282525E+02  1.05700000000E-01  0.0000E+00  9.0
      -13    1    1    2    0    0  4.68795277940E+02 -8.25475139290E+01  6.31815671000E+02  7.91058884008E+02  1.05700000000E-01  0.0000E+00  9.0
</event>
<event>
 4    1   7.6478753E-02   9.9960000E+02  -1.0000000E+00   9.4100000E-02
       -2   -1    0    0    0  500  0.00000000000E+00  0.00000000000E+00  3.94444158960E+02  3.94444158960E+02  0.00000000000E+00  0.0000E+00  9.0
        2   -1    0    0  500    0  0.00000000000E+00  0.00000000000E+00 -6.33350647030E+02  6.33350647030E+02  0.00000000000E+00  0.0000E+00  9.0
       13    1    1    2    0    0  3.97781977490E+02  1.38036221550E+02 -3.96364876860E+02  5.78264322656E+02  1.05700000000E-01  0.0000E+00  9.0
      -13    1    1    2    0    0 -3.97781977490E+02 -1.38036221550E+02  1.57458388790E+02  4.49530483336E+02  1.05700000000E-01  0.0000E+00  9.0
</event>
<event>
 4    1   7.6478753E-02   1.0120000E+03  -1.0000000E+00   9.3970000E-02
        1   -1    0    0  500    0  0.00000000000E+00  0.00000000000E+00  1.34821781490E+03  1.34821781490E+03  0.00000000000E+00  0.0000E+00  9.0
       -1   -1    0    0    0  500  0.00000000000E+00  0.00000000000E+00 -1.89938484010E+02  1.89938484010E+02  0.00000000000E+00  0.0000E+00  9.0
       13    1    1    2    0    0 -5.17941048960E+01 -4.20122511540E+02  1.57708130790E+02  4.51727151823E+02  1.05700000000E-01  0.0000E+00  9.0
      -13    1    1    2    0    0  5.17941048960E+01  4.20122511540E+02  1.00057120010E+03  1.08642914709E+03  1.05700000000E-01  0.0000E+00  9.0
</event>
<event>
 4    1   7.6478753E-02   9.9750000E+02  -1.0000000E+00   9.4120000E-02
        2   -1    0    0  500    0  0.00000000000E+00  0.00000000000E+00  6.33149881810E+02  6.33149881810E+02  0.00000000000E+00  0.0000E+00  9.0
       -2   -1    0    0    0  500  0.00000000000E+00  0.00000000000E+00 -3.92911240170E+02  3.92911240170E+02  0.00000000000E+00  0.0000E+00  9.0
       13    1    1    2    0    0 -3.85401993360E+02  9.52503653270E+01  4.30686317250E+02  5.85745715836E+02  1.05700000000E-01  0.0000E+00  9.0
      -13    1    1    2    0    0  3.85401993360E+02 -9.52503653270E+01 -1.90447675610E+02  4.40315406156E+02  1.05700000000E-01  0.0000E+00  9.0
</event>
<event>
 4    1   7.6478753E-02   1.0040000E+03  -1.0000000E+00   9.4050000E-02
       -1   -1    0    0    0  500  0.00000000000E+00  0.00000000000E+00  1.39342476760E+02  1.39342476760E+02  0.00000000000E+00  0.0000E+00  9.0
        1   -1    0    0  500    0  0.00000000000E+00  0.00000000000E+00 -1.80838819420E+03  1.80838819420E+03  0.00000000000E+00  0.0000E+00  9.0
       13    1    1    2    0    0  9.11280815050E+01 -3.45373498290E+02 -1.50267537400E+02  3.87514547506E+02  1.05700000000E-01  0.0000E+00  9.0
      -13    1    1    2    0    0 -9.11280815050E+01  3.45373498290E+02 -1.51877818010E+03  1.56021612352E+03  1.05700000000E-01  0.0000E+00  9.0
</event>
<event>
 4    1   7.6478753E-02   9.9940000E+02  -1.0000000E+00   9.4100000E-02
       -1   -1    0    0    0  500  0.00000000000E+00  0.00000000000E+00  2.84563424020E+02  2.84563424020E+02  0.00000000000E+00  0.0000E+00  9.0
        1   -1    0    0  500    0  0.00000000000E+00  0.00000000000E+00 -8.77559679490E+02  8.77559679490E+02  0.00000000000E+00  0.0000E+00  9.0
       13    1    1    2    0    0  1.86084599570E+02  1.33601400690E+02 -8.12910681470E+02  8.44571251988E+02  1.05700000000E-01  0.0000E+00  9.0
      -13    1    1    2    0    0 -1.86084599570E+02 -1.33601400690E+02  2.19914426000E+02  3.17551851512E+02  1.05700000000E-01  0.0000E+00  9.0
</event>
<event>
 4    1   7.6478753E-02   1.0020000E+03  -1.0000000E+00   9.4070000E-02
        1   -1    0    0  500    0  0.00000000000E+00  0.00000000000E+00  5.85449065440E+02  5.85449065440E+02  0.00000000000E+00  0.0000E+00  9.0
       -1   -1    0    0    0  500  0.00000000000E+00  0.00000000000E+00 -4.29106387340E+02  4.29106387340E+02  0.00000000000E+00  0.0000E+00  9.0
       13    1    1    2    0    0  1.24544211060E+02  4.84293964390E+02  4.35819032130E+01  5.01947505137E+02  1.05700000000E-01  0.0000E+00  9.0
      -13    1    1    2    0    0 -1.24544211060E+02 -4.84293964390E+02  1.12760774880E+02  5.12607947634E+02  1.05700000000E-01  0.0000E+00  9.0
</event>
<event>
 4    1   7.6478753E-02   1.0170000E+03  -1.0000000E+00   9.3920000E-02
        1   -1    0    0  500    0  0.00000000000E+00  0.00000000000E+00  7.84305477620E+02  7.84305477620E+02  0.00000000000E+00  0.0000E+00  9.0
       -1   -1    0    0    0  500  0.00000000000E+00  0.00000000000E+00 -3.29705360570E+02  3.29705360570E+02  0.00000000000E+00  0.0000E+00  9.0
       13    1    1    2    0    0 -3.22031366160E+02 -8.40900855030E+00  6.58282945440E+02  7.32878816480E+02  1.05700000000E-01  0.0000E+00  9.0
      -13    1    1    2    0    0  3.22031366160E+02  8.40900855030E+00 -2.03682828400E+02  3.81132021711E+02  1.05700000000E-01  0.0000E+00  9.0
</event>
<event>
 4    1   7.6478753E-02   9.8900000E+02  -1.0000000E+00   9.4220000E-02
       -1   -1    0    0    0  500  0.00000000000E+00  0.00000000000E+00  1.45845888500E+02  1.45845888500E+02  0.00000000000E+00  0.0000E+00  9.0
        1   -1    0    0  500    0  0.00000000000E+00  0.00000000000E+00 -1.67677029110E+03  1.67677029110E+03  0.00000000000E+00  0.0000E+00  9.0
       13    1    1    2    0    0  1.10369711870E+02 -2.06253333070E+01 -1.65296990940E+03  1.65677892618E+03  1.05700000000E-01  0.0000E+00  9.0
      -13    1    1    2    0    0 -1.10369711870E+02  2.06253333070E+01  1.22045506880E+02  1.65837253337E+02  1.05700000000E-01  0.0000E+00  9.0
</event>
<event>
 4    1   7.6478753E-02   9.8970000E+02  -1.0000000E+00   9.4210000E-02
        1   -1    0    0  500    0  0.00000000000E+00  0.00000000000E+00  2.19458997860E+02  2.19458997860E+02  0.00000000000E+00  0.0000E+00  9.0
       -1   -1    0    0    0  500  0.00000000000E+00  0.00000000000E+00 -1.11583249440E+03  1.11583249440E+03  0.00000000000E+00  0.0000E+00  9.0
       13    1    1    2    0    0  1.49800114210E+02 -6.91441470870E+01 -1.07763160140E+03  1.09018845472E+03  1.05700000000E-01  0.0000E+00  9.0
      -13    1    1    2    0    0 -1.49800114210E+02  6.91441470870E+01  1.81258104820E+02  2.45103037576E+02  1.05700000000E-01  0.0000E+00  9.0
</event>
<event>
 4    1   7.6478753E-02   9.9790000E+02  -1.0000000E+00   9.4120000E-02
       -1   -1    0    0    0  500  0.00000000000E+00  0.00000000000E+00  4.84811050140E+02  4.84811050140E+02  0.00000000000E+00  0.0000E+00  9.0
        1   -1    0    0  500    0  0.00000000000E+00  0.00000000000E+00 -5.13482470920E+02  5.13482470920E+02  0.00000000000E+00  0.0000E+00  9.0
       13    1    1    2    0    0 -1.09547351610E+02  3.77762630150E+02  2.92771004590E+02  4.90326523129E+02  1.05700000000E-01  0.0000E+00  9.0
      -13    1    1    2    0    0  1.09547351610E+02 -3.77762630150E+02 -3.21442425370E+02  5.07966997927E+02  1.05700000000E-01  0.0000E+00  9.0
</event>
<event>
 4    1   7.6478753E-02   9.8250000E+02  -1.0000000E+00   9.4290000E-02
       -1   -1    0    0    0  500  0.00000000000E+00  0.00000000000E+00  1.38499894340E+02  1.38499894340E+02  0.00000000000E+00  0.0000E+00  9.0
        1   -1    0    0  500    0  0.00000000000E+00  0.00000000000E+00 -1.74233227370E+03  1.74233227370E+03  0.00000000000E+00  0.0000E+00  9.0
       13    1    1    2    0    0 -3.09386319420E+02  3.17123070520E+02 -1.20813588930E+03  1.28680972746E+03  1.05700000000E-01  0.0000E+00  9.0
      -13    1    1    2    0    0  3.09386319420E+02 -3.17123070520E+02 -3.95696490060E+02  5.94022440585E+02  1.05700000000E-01  0.0000E+00  9.0
</event>
<event>
 4    1   7.6478753E-02   9.9140000E+02  -1.0000000E+00   9.4190000E-02
       -1   -1    0    0    0  500  0.00000000000E+00  0.00000000000E+00  7.98917396340E+02  7.98917396340E+02  0.00000000000E+00  0.0000E+00  9.0
        1   -1    0    0  500    0  0.00000000000E+00  0.00000000000E+00 -3.07544476590E+02  3.07544476590E+02  0.00000000000E+00  0.0000E+00  9.0
       13    1    1    2    0    0  1.94722452140E+02 -4.49259244440E+02  3.31791796290E+02  5.91469787343E+02  1.05700000000E-01  0.0000E+00  9.0
      -13    1    1    2    0    0 -1.94722452140E+02  4.49259244440E+02  1.59581123460E+02  5.14992085589E+02  1.05700000000E-01  0.0000E+00  9.0
</event>
<event>
 4    1   7.6478753E-02   1.0010000E+03  -1.0000000E+00   9.4090000E-02
        2   -1    0    0  500    0  0.00000000000E+00  0.00000000000E+00  2.35303412390E+03  2.35303412390E+03  0.00000000000E+00  0.0000E+00  9.0
       -2   -1    0    0    0  500  0.00000000000E+00  0.00000000000E+00 -1.06473208030E+02  1.06473208030E+02  0.00000000000E+00  0.0000E+00  9.0
       13    1    1    2    0    0  3.69975149880E+02 -2.55994556100E+02  5.84331285390E+02  7.37467210484E+02  1.05700000000E-01  0.0000E+00  9.0
      -13    1    1    2    0    0 -3.69975149880E+02  2.55994556100E+02  1.66222963050E+03  1.72204012147E+03  1.05700000000E-01  0.0000E+00  9.0
</event>
<event>
 4    1   7.6478753E-02   1.0080000E+03  -1.0000000E+00   9.4010000E-02
        1   -1    0    0  500    0  0.00000000000E+00  0.00000000000E+00  1.04092741490E+03  1.04092741490E+03  0.00000000000E+00  0.0000E+00  9.0
       -1   -1    0    0    0  500  0.00000000000E+00  0.00000000000E+00 -2.44263082770E+02  2.44263082770E+02  0.00000000000E+00  0.0000E+00  9.0
       13    1    1    2    0    0 -2.86324996230E+02 -2.51490733360E+02  8.19128979960E+02  9.03438924009E+02  1.05700000000E-01  0.0000E+00  9.0
      -13    1    1    2    0    0  2.86324996230E+02  2.51490733360E+02 -2.24646478040E+01  3.81751573678E+02  1.05700000000E-01  0.0000E+00  9.0
</event>
<event>
 4    1   7.6478753E-02   9.9830000E+02  -1.0000000E+00   9.4120000E-02
       -1   -1    0    0    0  500  0.00000000000E+00  0.00000000000E+00  1.52275355420E+02  1.52275355420E+02  0.00000000000E+00  0.0000E+00  9.0
        1   -1    0    0  500    0  0.00000000000E+00  0.00000000000E+00 -1.63621122630E+03  1.63621122630E+03  0.00000000000E+00  0.0000E+00  9.0
       13    1    1    2    0    0  4.18821595980E+02  1.29163741940E+02 -3.14024424860E+02  5.39171727813E+02  1.05700000000E-01  0.0000E+00  9.0
      -13    1    1    2    0    0 -4.18821595980E+02 -1.29163741940E+02 -1.16991144600E+03  1.24931485389E+03  1.05700000000E-01  0.0000E+00  9.0
</event>
<event>
 4    1   7.6478753E-02   9.9390000E+02  -1.0000000E+00   9.4160000E-02
       -3   -1    0    0    0  500  0.00000000000E+00  0.00000000000E+00  9.71462171100E+02  9.71462191688E+02  2.00000000000E-01  0.0000E+00  9.0
        3   -1    0    0  500    0  0.00000000000E+00  0.00000000000E+00 -2.54212449060E+02  2.54212527734E+02  2.00000000000E-01  0.0000E+00  9.0
       13    1    1    2    0    0  8.63315604860E+01 -3.34485699950E+02  7.99179735360E+02  8.70644636111E+02  1.05700000000E-01  0.0000E+00  9.0
      -13    1    1    2    0    0 -8.63315604860E+01  3.34485699950E+02 -8.19300133230E+01  3.55030083321E+02  1.05700000000E-01  0.0000E+00  9.0
</event>
<event>
 4    1   7.6478753E-02   1.0060000E+03  -1.0000000E+00   9.4040000E-02
        2   -1    0    0  500    0  0.00000000000E+00  0.00000000000E+00  5.54954996730E+02  5.54954996730E+02  0.00000000000E+00  0.0000E+00  9.0
       -2   -1    0    0    0  500  0.00000000000E+00  0.00000000000E+00 -4.55476446850E+02  4.55476446850E+02  0.00000000000E+00  0.0000E+00  9.0
       13    1    1    2    0    0 -1.29392552580E+02  4.14168138790E+02 -2.05451735950E+02  4.80091769175E+02  1.05700000000E-01  0.0000E+00  9.0
      -13    1    1    2    0    0  1.29392552580E+02 -4.14168138790E+02  3.04930285840E+02  5.30339674404E+02  1.05700000000E-01  0.0000E+00  9.0
</event>
<event>
 4    1   7.6478753E-02   9.9940000E+02  -1.0000000E+00   9.4100000E-02
        1   -1    0    0  500    0  0.00000000000E+00  0.00000000000E+00  6.90910912020E+02  6.90910912020E+02  0.00000000000E+00  0.0000E+00  9.0
       -1   -1    0    0    0  500  0.00000000000E+00  0.00000000000E+00 -3.61433506820E+02  3.61433506820E+02  0.00000000000E+00  0.0000E+00  9.0
       13    1    1    2    0    0  2.44550050900E+02  2.25389781690E+02  5.57461967010E+02  6.49129522453E+02  1.05700000000E-01  0.0000E+00  9.0
      -13    1    1    2    0    0 -2.44550050900E+02 -2.25389781690E+02 -2.27984561800E+02  4.03214896398E+02  1.05700000000E-01  0.0000E+00  9.0
</event>
<event>
 4    1   7.6478753E-02   1.0080000E+03  -1.0000000E+00   9.4010000E-02
       -1   -1    0    0    0  500  0.00000000000E+00  0.00000000000E+00  3.13002041250E+02  3.13002041250E+02  0.00000000000E+00  0.0000E+00  9.0
        1   -1    0    0  500    0  0.00000000000E+00  0.00000000000E+00 -8.12267498920E+02  8.12267498920E+02  0.00000000000E+00  0.0000E+00  9.0
       13    1    1    2    0    0  2.28161671300E+02  1.25101177420E+01  2.51910398680E+02  3.40107499817E+02  1.05700000000E-01  0.0000E+00  9.0
      -13    1    1    2    0    0 -2.28161671300E+02 -1.25101177420E+01 -7.51175856340E+02  7.85162040357E+02  1.05700000000E-01  0.0000E+00  9.0
</event>
<event>
 4    1   7.6478753E-02   9.9950000E+02  -1.0000000E+00   9.4100000E-02
       -1   -1    0    0    0  500  0.00000000000E+00  0.00000000000E+00  1.68841783980E+02  1.68841783980E+02  0.00000000000E+00  0.0000E+00  9.0
        1   -1    0    0  500    0  0.00000000000E+00  0.00000000000E+00 -1.47934293300E+03  1.47934293300E+03  0.00000000000E+00  0.0000E+00  9.0
       13    1    1    2    0    0  6.18913132810E+01 -3.42092805030E+02 -1.24729781500E+03  1.29483970915E+03  1.05700000000E-01  0.0000E+00  9.0
      -13    1    1    2    0    0 -6.18913132810E+01  3.42092805030E+02 -6.32033339450E+01  3.53345007758E+02  1.05700000000E-01  0.0000E+00  9.0
</event>
<event>
 4    1   7.6478753E-02   1.0030000E+03  -1.0000000E+00   9.4060000E-02
        1   -1    0    0  500    0  0.00000000000E+00  0.00000000000E+00  3.19833357870E+02  3.19833357870E+02  0.00000000000E+00  0.0000E+00  9.0
       -1   -1    0    0    0  500  0.00000000000E+00  0.00000000000E+00 -7.87126564160E+02  7.87126564160E+02  0.00000000000E+00  0.0000E+00  9.0
       13    1    1    2    0    0 -2.03110394270E+02 -2.72653546080E+02 -6.40685005140E+02  7.25307572988E+02  1.05700000000E-01  0.0000E+00  9.0
      -13    1    1    2    0    0  2.03110394270E+02  2.72653546080E+02  1.73391798850E+02  3.81652349045E+02  1.05700000000E-01  0.0000E+00  9.0
</event>
<event>
 4    1   7.6478753E-02   1.0000000E+03  -1.0000000E+00   9.4090000E-02
       -1   -1    0    0    0  500  0.00000000000E+00  0.00000000000E+00  1.39079395880E+02  1.39079395880E+02  0.00000000000E+00  0.0000E+00  9.0
        1   -1    0    0  500    0  0.00000000000E+00  0.00000000000E+00 -1.79911442390E+03  1.79911442390E+03  0.00000000000E+00  0.0000E+00  9.0
       13    1    1    2    0    0 -4.67209808570E+02  1.66587845000E+02 -7.04714416510E+02  8.61776615681E+02  1.05700000000E-01  0.0000E+00  9.0
      -13    1    1    2    0    0  4.67209808570E+02 -1.66587845000E+02 -9.55320611470E+02  1.07641720406E+03  1.05700000000E-01  0.0000E+00  9.0
</event>
<event>
 4    1   7.6478753E-02   1.0050000E+03  -1.0000000E+00   9.4040000E-02
       -2   -1    0    0    0  500  0.00000000000E+00  0.00000000000E+00  1.03082384240E+02  1.03082384240E+02  0.00000000000E+00  0.0000E+00  9.0
        2   -1    0    0  500    0  0.00000000000E+00  0.00000000000E+00 -2.44988120360E+03  2.44988120360E+03  0.00000000000E+00  0.0000E+00  9.0
       13    1    1    2    0    0 -3.76394188040E+02 -2.18716868980E+02 -1.81110951640E+03  1.86269357253E+03  1.05700000000E-01  0.0000E+00  9.0
      -13    1    1    2    0    0  3.76394188040E+02  2.18716868980E+02 -5.35689302970E+02  6.90270015324E+02  1.05700000000E-01  0.0000E+00  9.0
</event>
<event>
 4    1   7.6478753E-02   9.9860000E+02  -1.0000000E+00   9.4110000E-02
       -1   -1    0    0    0  500  0.00000000000E+00  0.00000000000E+00  1.33879902960E+02  1.33879902960E+02  0.00000000000E+00  0.0000E+00  9.0
        1   -1    0    0  500    0  0.00000000000E+00  0.00000000000E+00 -1.86225889620E+03  1.86225889620E+03  0.00000000000E+00  0.0000E+00  9.0
       13    1    1    2    0    0  5.96568783740E+01  2.10333481270E+02  3.31194550740E+01  2.21124458071E+02  1.05700000000E-01  0.0000E+00  9.0
      -13    1    1    2    0    0 -5.96568783740E+01 -2.10333481270E+02 -1.76149844830E+03  1.77501434107E+03  1.05700000000E-01  0.0000E+00  9.0
</event>
<event>
 4    1   7.6478753E-02   1.0040000E+03  -1.0000000E+00   9.4050000E-02
       -2   -1    0    0    0  500  0.00000000000E+00  0.00000000000E+00  1.82314441710E+02  1.82314441710E+02  0.00000000000E+00  0.0000E+00  9.0
        2   -1    0    0  500    0  0.00000000000E+00  0.00000000000E+00 -1.38258897290E+03  1.38258897290E+03  0.00000000000E+00  0.0000E+00  9.0
       13    1    1    2    0    0 -8.71645880850E+01  4.54312516810E+02 -9.04213695900E+02  1.01567708814E+03  1.05700000000E-01  0.0000E+00  9.0
      -13    1    1    2    0    0  8.71645880850E+01 -4.54312516810E+02 -2.96060835300E+02  5.49226326497E+02  1.05700000000E-01  0.0000E+00  9.0
</event>
<event>
 4    1   7.6478753E-02   1.0010000E+03  -1.0000000E+00   9.4090000E-02
        1   -1    0    0  500    0  0.00000000000E+00  0.00000000000E+00  1.49700095710E+03  1.49700095710E+03  0.00000000000E+00  0.0000E+00  9.0
       -1   -1    0    0    0  500  0.00000000000E+00  0.00000000000E+00 -1.67192643480E+02  1.67192643480E+02  0.00000000000E+00  0.0000E+00  9.0
       13    1    1    2    0    0  3.17275740360E+02 -2.91422492690E+02  1.08795723940E+03  1.17014611507E+03  1.05700000000E-01  0.0000E+00  9.0
      -13    1    1    2    0    0 -3.17275740360E+02  2.91422492690E+02  2.41851074210E+02  4.94047485507E+02  1.05700000000E-01  0.0000E+00  9.0
</event>
<event>
 4    1   7.6478753E-02   9.9940000E+02  -1.0000000E+00   9.4100000E-02
       -2   -1    0    0    0  500  0.00000000000E+00  0.00000000000E+00  3.03013551420E+02  3.03013551420E+02  0.00000000000E+00  0.0000E+00  9.0
        2   -1    0    0  500    0  0.00000000000E+00  0.00000000000E+00 -8.24048646070E+02  8.24048646070E+02  0.00000000000E+00  0.0000E+00  9.0
       13    1    1    2    0    0 -2.16770816950E+02 -1.40974455950E+02 -7.42731224900E+02  7.86456017795E+02  1.05700000000E-01  0.0000E+00  9.0
      -13    1    1    2    0    0  2.16770816950E+02  1.40974455950E+02  2.21696130250E+02  3.40606179703E+02  1.05700000000E-01  0.0000E+00  9.0
</event>
<event>
 4    1   7.6478753E-02   1.0010000E+03  -1.0000000E+00   9.4090000E-02
       -3   -1    0    0    0  500  0.00000000000E+00  0.00000000000E+00  1.48858980330E+03  1.48858981674E+03  2.00000000000E-01  0.0000E+00  9.0
        3   -1    0    0  500    0  0.00000000000E+00  0.00000000000E+00 -1.68318904090E+02  1.68319022912E+02  2.00000000000E-01  0.0000E+00  9.0
       13    1    1    2    0    0 -1.05883244250E+02 -3.00775333790E+02  1.29874287220E+03  1.33731451876E+03  1.05700000000E-01  0.0000E+00  9.0
      -13    1    1    2    0    0  1.05883244250E+02  3.00775333790E+02  2.15280270080E+01  3.19594320896E+02  1.05700000000E-01  0.0000E+00  9.0
</event>
<event>
 4    1   7.6478753E-02   1.0010000E+03  -1.0000000E+00   9.4080000E-02
        1   -1    0    0  500    0  0.00000000000E+00  0.00000000000E+00  1.87573892900E+03  1.87573892900E+03  0.00000000000E+00  0.0000E+00  9.0
       -1   -1    0    0    0  500  0.00000000000E+00  0.00000000000E+00 -1.33671021550E+02  1.33671021550E+02  0.00000000000E+00  0.0000E+00  9.0
       13    1    1    2    0    0  1.34713428780E+02  4.58770237270E+02  5.72654955680E+02  7.46023825314E+02  1.05700000000E-01  0.0000E+00  9.0
      -13    1    1    2    0    0 -1.34713428780E+02 -4.58770237270E+02  1.16941295170E+03  1.26338612517E+03  1.05700000000E-01  0.0000E+00  9.0
</event>
<event>
 4    1   7.6478753E-02   9.9390000E+02  -1.0000000E+00   9.4160000E-02
        1   -1    0    0  500    0  0.00000000000E+00  0.00000000000E+00  3.34213637120E+02  3.34213637120E+02  0.00000000000E+00  0.0000E+00  9.0
       -1   -1    0    0    0  500  0.00000000000E+00  0.00000000000E+00 -7.38910537250E+02  7.38910537250E+02  0.00000000000E+00  0.0000E+00  9.0
       13    1    1    2    0    0 -1.31500452370E+02  2.69736134780E+02  2.25341454140E+02  3.75271546358E+02  1.05700000000E-01  0.0000E+00  9.0
      -13    1    1    2    0    0  1.31500452370E+02 -2.69736134780E+02 -6.30038354280E+02  6.97852628007E+02  1.05700000000E-01  0.0000E+00  9.0
</event>
<event>
 4    1   7.6478753E-02   9.9970000E+02  -1.0000000E+00   9.4100000E-02
        1   -1    0    0  500    0  0.00000000000E+00  0.00000000000E+00  6.70263489200E+02  6.70263489200E+02  0.00000000000E+00  0.0000E+00  9.0
       -1   -1    0    0    0  500  0.00000000000E+00  0.00000000000E+00 -3.72745158300E+02  3.72745158300E+02  0.00000000000E+00  0.0000E+00  9.0
       13    1    1    2    0    0 -4.93620818560E+02  7.84016714080E+01  1.43128506580E+02  5.19898177688E+02  1.05700000000E-01  0.0000E+00  9.0
      -13    1    1    2    0    0  4.93620818560E+02 -7.84016714080E+01  1.54389824330E+02  5.23110469810E+02  1.05700000000E-01  0.0000E+00  9.0
</event>
<event>
 4    1   7.6478753E-02   1.0000000E+03  -1.0000000E+00   9.4100000E-02
       -1   -1    0    0    0  500  0.00000000000E+00  0.00000000000E+00  1.04171099430E+02  1.04171099430E+02  0.00000000000E+00  0.0000E+00  9.0
        1   -1    0    0  500    0  0.00000000000E+00  0.00000000000E+00 -2.40042419400E+03  2.40042419400E+03  0.00000000000E+00  0.0000E+00  9.0
       13    1    1    2    0    0 -3.86775364710E+01  3.24722380030E+02 -2.00730938010E+02  3.83710172613E+02  1.05700000000E-01  0.0000E+00  9.0
      -13    1    1    2    0    0  3.86775364710E+01 -3.24722380030E+02 -2.09552215650E+03  2.12088512076E+03  1.05700000000E-01  0.0000E+00  9.0
</event>
<event>
 4    1   7.6478753E-02   9.9900000E+02  -1.0000000E+00   9.4110000E-02
       -1   -1    0    0    0  500  0.00000000000E+00  0.00000000000E+00  2.25985750260E+02  2.25985750260E+02  0.00000000000E+00  0.0000E+00  9.0
        1   -1    0    0  500    0  0.00000000000E+00  0.00000000000E+00 -1.10410796440E+03  1.10410796440E+03  0.00000000000E+00  0.0000E+00  9.0
       13    1    1    2    0    0 -4.41743941980E+02  2.31687026960E+02 -4.03934888240E+02  6.41856677030E+02  1.05700000000E-01  0.0000E+00  9.0
      -13    1    1    2    0    0  4.41743941980E+02 -2.31687026960E+02 -4.74187325880E+02  6.88237037608E+02  1.05700000000E-01  0.0000E+00  9.0
</event>
<event>
 4    1   7.6478753E-02   1.0040000E+03  -1.0000000E+00   9.4050000E-02
       -2   -1    0    0    0  500  0.00000000000E+00  0.00000000000E+00  1.42485655760E+03  1.42485655760E+03  0.00000000000E+00  0.0000E+00  9.0
        2   -1    0    0  500    0  0.00000000000E+00  0.00000000000E+00 -1.76971735810E+02  1.76971735810E+02  0.00000000000E+00  0.0000E+00  9.0
       13    1    1    2    0    0  4.80329248800E+02  2.63132454220E+01  8.53697620110E+02  9.79902144039E+02  1.05700000000E-01  0.0000E+00  9.0
      -13    1    1    2    0    0 -4.80329248800E+02 -2.63132454220E+01  3.94187201710E+02  6.21926149395E+02  1.05700000000E-01  0.0000E+00  9.0
</event>
<event>
 4    1   7.6478753E-02   9.8850000E+02  -1.0000000E+00   9.4220000E-02
       -1   -1    0    0    0  500  0.00000000000E+00  0.00000000000E+00  9.30530229450E+02  9.30530229450E+02  0.00000000000E+00  0.0000E+00  9.0
        1   -1    0    0  500    0  0.00000000000E+00  0.00000000000E+00 -2.62515464000E+02  2.62515464000E+02  0.00000000000E+00  0.0000E+00  9.0
       13    1    1    2    0    0  4.55767357280E+02 -3.85439912040E+01  1.07987661440E+02  4.69969008995E+02  1.05700000000E-01  0.0000E+00  9.0
      -13    1    1    2    0    0 -4.55767357280E+02  3.85439912040E+01  5.60027104000E+02  7.23076684458E+02  1.05700000000E-01  0.0000E+00  9.0
</event>
<event>
 4    1   7.6478753E-02   9.9960000E+02  -1.0000000E+00   9.4100000E-02
        1   -1    0    0  500    0  0.00000000000E+00  0.00000000000E+00  1.43283657350E+03  1.43283657350E+03  0.00000000000E+00  0.0000E+00  9.0
       -1   -1    0    0    0  500  0.00000000000E+00  0.00000000000E+00 -1.74333425120E+02  1.74333425120E+02  0.00000000000E+00  0.0000E+00  9.0
       13    1    1    2    0    0  4.54670884720E+02 -1.97941038340E+02  5.29034838750E+02  7.25109743318E+02  1.05700000000E-01  0.0000E+00  9.0
      -13    1    1    2    0    0 -4.54670884720E+02  1.97941038340E+02  7.29468309600E+02  8.82060255286E+02  1.05700000000E-01  0.0000E+00  9.0
</event>
<event>
 4    1   7.6478753E-02   9.9980000E+02  -1.0000000E+00   9.4100000E-02
       -2   -1    0    0    0  500  0.00000000000E+00  0.00000000000E+00  1.41997256680E+02  1.41997256680E+02  0.00000000000E+00  0.0000E+00  9.0
        2   -1    0    0  500    0  0.00000000000E+00  0.00000000000E+00 -1.75982372100E+03  1.75982372100E+03  0.00000000000E+00  0.0000E+00  9.0
       13    1    1    2    0    0 -2.48625294940E+01 -3.55125295340E+02 -1.41343855280E+02  3.83027697903E+02  1.05700000000E-01  0.0000E+00  9.0
      -13    1    1    2    0    0  2.48625294940E+01  3.55125295340E+02 -1.47648260900E+03  1.51879327975E+03  1.05700000000E-01  0.0000E+00  9.0
</event>
<event>
 4    1   7.6478753E-02   9.9990000E+02  -1.0000000E+00   9.4100000E-02
        2   -1    0    0  500    0  0.00000000000E+00  0.00000000000E+00  2.01886621860E+03  2.01886621860E+03  0.00000000000E+00  0.0000E+00  9.0
       -2   -1    0    0    0  500  0.00000000000E+00  0.00000000000E+00 -1.23801927210E+02  1.23801927210E+02  0.00000000000E+00  0.0000E+00  9.0
       13    1    1    2    0    0  1.95407417670E+02 -1.92345637900E+02  1.84336449330E+03  1.86364523706E+03  1.05700000000E-01  0.0000E+00  9.0
      -13    1    1    2    0    0 -1.95407417670E+02  1.92345637900E+02  5.16997980700E+01  2.79022908724E+02  1.05700000000E-01  0.0000E+00  9.0
</event>
<event>
 4    1   7.6478753E-02   9.9750000E+02  -1.0000000E+00   9.4120000E-02
       -2   -1    0    0    0  500  0.00000000000E+00  0.00000000000E+00  1.06219453750E+02  1.06219453750E+02  0.00000000000E+00  0.0000E+00  9.0
        2   -1    0    0  500    0  0.00000000000E+00  0.00000000000E+00 -2.34185986170E+03  2.34185986170E+03  0.00000000000E+00  0.0000E+00  9.0
       13    1    1    2    0    0  1.07160624400E+02 -4.87101043260E+02 -1.11901836800E+03  1.22513384773E+03  1.05700000000E-01  0.0000E+00  9.0
      -13    1    1    2    0    0 -1.07160624400E+02  4.87101043260E+02 -1.11662204000E+03  1.22294546778E+03  1.05700000000E-01  0.0000E+00  9.0
</event>
<event>
 4    1   7.6478753E-02   1.0010000E+03  -1.0000000E+00   9.4090000E-02
        2   -1    0    0  500    0  0.00000000000E+00  0.00000000000E+00  9.76536251650E+02  9.76536251650E+02  0.00000000000E+00  0.0000E+00  9.0
       -2   -1    0    0    0  500  0.00000000000E+00  0.00000000000E+00 -2.56463893060E+02  2.56463893060E+02  0.00000000000E+00  0.0000E+00  9.0
       13    1    1    2    0    0 -1.76228276760E+02 -6.52843912820E+01 -2.11342617460E+02  2.82814728050E+02  1.05700000000E-01  0.0000E+00  9.0
      -13    1    1    2    0    0  1.76228276760E+02  6.52843912820E+01  9.31414976040E+02  9.50185416663E+02  1.05700000000E-01  0.0000E+00  9.0
</event>
<event>
 4    1   7.6478753E-02   1.0010000E+03  -1.0000000E+00   9.4090000E-02
       -1   -1    0    0    0  500  0.00000000000E+00  0.00000000000E+00  8.37677408050E+02  8.37677408050E+02  0.00000000000E+00  0.0000E+00  9.0
        1   -1    0    0  500    0  0.00000000000E+00  0.00000000000E+00 -2.99066401300E+02  2.99066401300E+02  0.00000000000E+00  0.0000E+00  9.0
       13    1    1    2    0    0 -2.63262201130E+02  6.76947127740E+01  7.46554017420E+02  7.94501398853E+02  1.05700000000E-01  0.0000E+00  9.0
      -13    1    1    2    0    0  2.63262201130E+02 -6.76947127740E+01 -2.07943010660E+02  3.42242410487E+02  1.05700000000E-01  0.0000E+00  9.0
</event>
<event>
 4    1   7.6478753E-02   1.0090000E+03  -1.0000000E+00   9.4000000E-02
        1   -1    0    0  500    0  0.00000000000E+00  0.00000000000E+00  2.16781973720E+02  2.16781973720E+02  0.00000000000E+00  0.0000E+00  9.0
       -1   -1    0    0    0  500  0.00000000000E+00  0.00000000000E+00 -1.17346057600E+03  1.17346057600E+03  0.00000000000E+00  0.0000E+00  9.0
       13    1    1    2    0    0  7.73118704270E+01  5.62148861490E+01  2.04183791840E+02  2.25451260268E+02  1.05700000000E-01  0.0000E+00  9.0
      -13    1    1    2    0    0 -7.73118704270E+01 -5.62148861490E+01 -1.16086239410E+03  1.16479128943E+03  1.05700000000E-01  0.0000E+00  9.0
</event>
<event>
 4    1   7.6478753E-02   1.0010000E+03  -1.0000000E+00   9.4090000E-02
       -1   -1    0    0    0  500  0.00000000000E+00  0.00000000000E+00  7.07570660870E+02  7.07570660870E+02  0.00000000000E+00  0.0000E+00  9.0
        1   -1    0    0  500    0  0.00000000000E+00  0.00000000000E+00 -3.53742152440E+02  3.53742152440E+02  0.00000000000E+00  0.0000E+00  9.0
       13    1    1    2    0    0 -1.41483604090E+02  4.68858326410E+02  6.84763804090E+01  4.94504566528E+02  1.05700000000E-01  0.0000E+00  9.0
      -13    1    1    2    0    0  1.41483604090E+02 -4.68858326410E+02  2.85352128020E+02  5.66808246772E+02  1.05700000000E-01  0.0000E+00  9.0
</event>
<event>
 4    1   7.6478753E-02   9.8680000E+02  -1.0000000E+00   9.4240000E-02
        4   -1    0    0  500    0  0.00000000000E+00  0.00000000000E+00  2.37669748240E+02  2.37673303567E+02  1.30000000000E+00  0.0000E+00  9.0
       -4   -1    0    0    0  500  0.00000000000E+00  0.00000000000E+00 -1.02428195420E+03  1.02428277917E+03  1.30000000000E+00  0.0000E+00  9.0
       13    1    1    2    0    0 -1.71460146250E+02 -1.72521159160E+02  1.55673087640E+02  2.88784094953E+02  1.05700000000E-01  0.0000E+00  9.0
      -13    1    1    2    0    0  1.71460146250E+02  1.72521159160E+02 -9.42285293580E+02  9.73171987770E+02  1.05700000000E-01  0.0000E+00  9.0
</event>
<event>
 4    1   7.6478753E-02   1.0010000E+03  -1.0000000E+00   9.4080000E-02
       -1   -1    0    0    0  500  0.00000000000E+00  0.00000000000E+00  3.33019314080E+02  3.33019314080E+02  0.00000000000E+00  0.0000E+00  9.0
        1   -1    0    0  500    0  0.00000000000E+00  0.00000000000E+00 -7.52587643690E+02  7.52587643690E+02  0.00000000000E+00  0.0000E+00  9.0
       13    1    1    2    0    0  4.07308284350E+02 -2.87485122880E+02 -1.60352890360E+02  5.23699145499E+02  1.05700000000E-01  0.0000E+00  9.0
      -13    1    1    2    0    0 -4.07308284350E+02  2.87485122880E+02 -2.59215439240E+02  5.61907812270E+02  1.05700000000E-01  0.0000E+00  9.0
</event>
<event>
 4    1   7.6478753E-02   7.5560000E+02  -1.0000000E+00   9.7230000E-02
       -3   -1    0    0    0  500  0.00000000000E+00  0.00000000000E+00  4.39713085900E+02  4.39713131384E+02  2.00000000000E-01  0.0000E+00  9.0
        3   -1    0    0  500    0  0.00000000000E+00  0.00000000000E+00 -3.24571494110E+02  3.24571555730E+02  2.00000000000E-01  0.0000E+00  9.0
       13    1    1    2    0    0  1.91649525540E+02 -3.25558993880E+02  5.71612837820E+01  3.82080649434E+02  1.05700000000E-01  0.0000E+00  9.0
      -13    1    1    2    0    0 -1.91649525540E+02  3.25558993880E+02  5.79803080030E+01  3.82204037687E+02  1.05700000000E-01  0.0000E+00  9.0
</event>
<event>
 4    1   7.6478753E-02   1.0080000E+03  -1.0000000E+00   9.4010000E-02
       -1   -1    0    0    0  500  0.00000000000E+00  0.00000000000E+00  4.51633440920E+02  4.51633440920E+02  0.00000000000E+00  0.0000E+00  9.0
        1   -1    0    0  500    0  0.00000000000E+00  0.00000000000E+00 -5.62773273970E+02  5.62773273970E+02  0.00000000000E+00  0.0000E+00  9.0
       13    1    1    2    0    0  3.63610391770E+02 -7.52633448350E+01  2.87508795800E+02  4.69615168956E+02  1.05700000000E-01  0.0000E+00  9.0
      -13    1    1    2    0    0 -3.63610391770E+02  7.52633448350E+01 -3.98648628840E+02  5.44791545940E+02  1.05700000000E-01  0.0000E+00  9.0
</event>
<event>
 4    1   7.6478753E-02   1.0120000E+03  -1.0000000E+00   9.3960000E-02
        1   -1    0    0  500    0  0.00000000000E+00  0.00000000000E+00  7.57522069760E+02  7.57522069760E+02  0.00000000000E+00  0.0000E+00  9.0
       -1   -1    0    0    0  500  0.00000000000E+00  0.00000000000E+00 -3.38318328950E+02  3.38318328950E+02  0.00000000000E+00  0.0000E+00  9.0
       13    1    1    2    0    0  4.51641901190E+02  2.23857166800E+02  2.60265128290E+02  5.67300966167E+02  1.05700000000E-01  0.0000E+00  9.0
      -13    1    1    2    0    0 -4.51641901190E+02 -2.23857166800E+02  1.58938612520E+02  5.28539432550E+02  1.05700000000E-01  0.0000E+00  9.0
</event>
<event>
 4    1   7.6478753E-02   1.0060000E+03  -1.0000000E+00   9.4030000E-02
        2   -1    0    0  500    0  0.00000000000E+00  0.00000000000E+00  1.55998242650E+03  1.55998242650E+03  0.00000000000E+00  0.0000E+00  9.0
       -2   -1    0    0    0  500  0.00000000000E+00  0.00000000000E+00 -1.62340842720E+02  1.62340842720E+02  0.00000000000E+00  0.0000E+00  9.0
       13    1    1    2    0    0  1.11883520310E+02 -4.89156527560E+02  7.64135933370E+02  9.14163971294E+02  1.05700000000E-01  0.0000E+00  9.0
      -13    1    1    2    0    0 -1.11883520310E+02  4.89156527560E+02  6.33505650440E+02  8.08159297963E+02  1.05700000000E-01  0.0000E+00  9.0
</event>
<event>
 4    1   7.6478753E-02   1.0070000E+03  -1.0000000E+00   9.4020000E-02
        2   -1    0    0  500    0  0.00000000000E+00  0.00000000000E+00  2.11211087830E+03  2.11211087830E+03  0.00000000000E+00  0.0000E+00  9.0
       -2   -1    0    0    0  500  0.00000000000E+00  0.00000000000E+00 -1.20028979510E+02  1.20028979510E+02  0.00000000000E+00  0.0000E+00  9.0
       13    1    1    2    0    0 -2.03012810700E+01 -4.98444331330E+02  1.14728497520E+03  1.25104824805E+03  1.05700000000E-01  0.0000E+00  9.0
      -13    1    1    2    0    0  2.03012810700E+01  4.98444331330E+02  8.44796923540E+02  9.81091609710E+02  1.05700000000E-01  0.0000E+00  9.0
</event>
<event>
 4    1   7.6478753E-02   1.0020000E+03  -1.0000000E+00   9.4080000E-02
        1   -1    0    0  500    0  0.00000000000E+00  0.00000000000E+00  8.00495895500E+02  8.00495895500E+02  0.00000000000E+00  0.0000E+00  9.0
       -1   -1    0    0    0  500  0.00000000000E+00  0.00000000000E+00 -3.13498507470E+02  3.13498507470E+02  0.00000000000E+00  0.0000E+00  9.0
       13    1    1    2    0    0 -4.58601293680E+02  1.96457117350E+02  1.93233710550E+02  5.35023199112E+02  1.05700000000E-01  0.0000E+00  9.0
      -13    1    1    2    0    0  4.58601293680E+02 -1.96457117350E+02  2.93763677470E+02  5.78971203857E+02  1.05700000000E-01  0.0000E+00  9.0
</event>
<event>
 4    1   7.6478753E-02   1.0100000E+03  -1.0000000E+00   9.3990000E-02
       -2   -1    0    0    0  500  0.00000000000E+00  0.00000000000E+00  1.83284028190E+02  1.83284028190E+02  0.00000000000E+00  0.0000E+00  9.0
        2   -1    0    0  500    0  0.00000000000E+00  0.00000000000E+00 -1.39249803560E+03  1.39249803560E+03  0.00000000000E+00  0.0000E+00  9.0
       13    1    1    2    0    0  3.72815935240E+02 -1.22798171840E+01 -1.13596287050E+03  1.19563964881E+03  1.05700000000E-01  0.0000E+00  9.0
      -13    1    1    2    0    0 -3.72815935240E+02  1.22798171840E+01 -7.32511369820E+01  3.80142415051E+02  1.05700000000E-01  0.0000E+00  9.0
</event>
<event>
 4    1   7.6478753E-02   1.0060000E+03  -1.0000000E+00   9.4030000E-02
       -1   -1    0    0    0  500  0.00000000000E+00  0.00000000000E+00  2.96335831590E+02  2.96335831590E+02  0.00000000000E+00  0.0000E+00  9.0
        1   -1    0    0  500    0  0.00000000000E+00  0.00000000000E+00 -8.54461564770E+02  8.54461564770E+02  0.00000000000E+00  0.0000E+00  9.0
       13    1    1    2    0    0 -2.24000496720E+02  2.96807627700E+02 -6.66730599250E+02  7.63413841596E+02  1.05700000000E-01  0.0000E+00  9.0
      -13    1    1    2    0    0  2.24000496720E+02 -2.96807627700E+02  1.08604866060E+02  3.87383554757E+02  1.05700000000E-01  0.0000E+00  9.0
</event>
<event>
 4    1   7.6478753E-02   9.9900000E+02  -1.0000000E+00   9.4110000E-02
        1   -1    0    0  500    0  0.00000000000E+00  0.00000000000E+00  1.67879784410E+03  1.67879784410E+03  0.00000000000E+00  0.0000E+00  9.0
       -1   -1    0    0    0  500  0.00000000000E+00  0.00000000000E+00 -1.48619410050E+02  1.48619410050E+02  0.00000000000E+00  0.0000E+00  9.0
       13    1    1    2    0    0  2.97134755680E+01 -4.76623279600E+02  1.03299201270E+03  1.13803565443E+03  1.05700000000E-01  0.0000E+00  9.0
      -13    1    1    2    0    0 -2.97134755680E+01  4.76623279600E+02  4.97186421380E+02  6.89381599743E+02  1.05700000000E-01  0.0000E+00  9.0
</event>
<event>
 4    1   7.6478753E-02   1.0050000E+03  -1.0000000E+00   9.4040000E-02
        1   -1    0    0  500    0  0.00000000000E+00  0.00000000000E+00  2.10119145550E+03  2.10119145550E+03  0.00000000000E+00  0.0000E+00  9.0
       -1   -1    0    0    0  500  0.00000000000E+00  0.00000000000E+00 -1.20270812850E+02  1.20270812850E+02  0.00000000000E+00  0.0000E+00  9.0
       13    1    1    2    0    0  3.15100626170E+02 -2.95024252340E+02  4.21176776210E+02  6.03090044747E+02  1.05700000000E-01  0.0000E+00  9.0
      -13    1    1    2    0    0 -3.15100626170E+02  2.95024252340E+02  1.55974386640E+03  1.61837222357E+03  1.05700000000E-01  0.0000E+00  9.0
</event>
<event>
 4    1   7.6478753E-02   9.9860000E+02  -1.0000000E+00   9.4110000E-02
       -2   -1    0    0    0  500  0.00000000000E+00  0.00000000000E+00  1.29884157930E+02  1.29884157930E+02  0.00000000000E+00  0.0000E+00  9.0
        2   -1    0    0  500    0  0.00000000000E+00  0.00000000000E+00 -1.91954909020E+03  1.91954909020E+03  0.00000000000E+00  0.0000E+00  9.0
       13    1    1    2    0    0 -2.84432212530E+02 -2.38531145760E+02 -1.58016741240E+03  1.62318447917E+03  1.05700000000E-01  0.0000E+00  9.0
      -13    1    1    2    0    0  2.84432212530E+02  2.38531145760E+02 -2.09497519810E+02  4.26248768915E+02  1.05700000000E-01  0.0000E+00  9.0
</event>
<event>
 4    1   7.6478753E-02   9.9970000E+02  -1.0000000E+00   9.4100000E-02
       -1   -1    0    0    0  500  0.00000000000E+00  0.00000000000E+00  1.83716539810E+02  1.83716539810E+02  0.00000000000E+00  0.0000E+00  9.0
        1   -1    0    0  500    0  0.00000000000E+00  0.00000000000E+00 -1.35986182470E+03  1.35986182470E+03  0.00000000000E+00  0.0000E+00  9.0
       13    1    1    2    0    0 -1.27339898400E+02 -1.79596797600E+02  1.04814177650E+02  2.43836999739E+02  1.05700000000E-01  0.0000E+00  9.0
      -13    1    1    2    0    0  1.27339898400E+02  1.79596797600E+02 -1.28095946260E+03  1.29974136482E+03  1.05700000000E-01  0.0000E+00  9.0
</event>
<event>
 4    1   7.6478753E-02   1.0010000E+03  -1.0000000E+00   9.4080000E-02
       -1   -1    0    0    0  500  0.00000000000E+00  0.00000000000E+00  1.51559480760E+02  1.51559480760E+02  0.00000000000E+00  0.0000E+00  9.0
        1   -1    0    0  500    0  0.00000000000E+00  0.00000000000E+00 -1.65351624010E+03  1.65351624010E+03  0.00000000000E+00  0.0000E+00  9.0
       13    1    1    2    0    0 -4.96057155990E+02  2.94320090840E+01 -8.60155441130E+02  9.93381265802E+02  1.05700000000E-01  0.0000E+00  9.0
      -13    1    1    2    0    0  4.96057155990E+02 -2.94320090840E+01 -6.41801318240E+02  8.11694455097E+02  1.05700000000E-01  0.0000E+00  9.0
</event>
<event>
 4    1   7.6478753E-02   9.9500000E+02  -1.0000000E+00   9.4150000E-02
       -1   -1    0    0    0  500  0.00000000000E+00  0.00000000000E+00  1.31877179410E+02  1.31877179410E+02  0.00000000000E+00  0.0000E+00  9.0
        1   -1    0    0  500    0  0.00000000000E+00  0.00000000000E+00 -1.87684347400E+03  1.87684347400E+03  0.00000000000E+00  0.0000E+00  9.0
       13    1    1    2    0    0 -3.46464478180E+01 -2.59104880900E+02 -1.79440360190E+01  2.62026172841E+02  1.05700000000E-01  0.0000E+00  9.0
      -13    1    1    2    0    0  3.46464478180E+01  2.59104880900E+02 -1.72702225850E+03  1.74669448049E+03  1.05700000000E-01  0.0000E+00  9.0
</event>
<event>
 4    1   7.6478753E-02   9.9550000E+02  -1.0000000E+00   9.4150000E-02
       -1   -1    0    0    0  500  0.00000000000E+00  0.00000000000E+00  5.09574044560E+02  5.09574044560E+02  0.00000000000E+00  0.0000E+00  9.0
        1   -1    0    0  500    0  0.00000000000E+00  0.00000000000E+00 -4.86225308390E+02  4.86225308390E+02  0.00000000000E+00  0.0000E+00  9.0
       13    1    1    2    0    0 -2.66438636340E+02 -2.58496882690E+02 -3.20015374630E+02  4.90122470886E+02  1.05700000000E-01  0.0000E+00  9.0
      -13    1    1    2    0    0  2.66438636340E+02  2.58496882690E+02  3.43364110800E+02  5.05676882063E+02  1.05700000000E-01  0.0000E+00  9.0
</event>
<event>
 4    1   7.6478753E-02   9.9870000E+02  -1.0000000E+00   9.4110000E-02
        2   -1    0    0  500    0  0.00000000000E+00  0.00000000000E+00  4.07902710600E+03  4.07902710600E+03  0.00000000000E+00  0.0000E+00  9.0
       -2   -1    0    0    0  500  0.00000000000E+00  0.00000000000E+00 -6.11287797330E+01  6.11287797330E+01  0.00000000000E+00  0.0000E+00  9.0
       13    1    1    2    0    0 -4.57639500770E+02  6.68147473110E+01  1.22843592140E+03  1.31261302267E+03  1.05700000000E-01  0.0000E+00  9.0
      -13    1    1    2    0    0  4.57639500770E+02 -6.68147473110E+01  2.78946240490E+03  2.82754286310E+03  1.05700000000E-01  0.0000E+00  9.0
</event>
<event>
 4    1   7.6478753E-02   1.0350000E+03  -1.0000000E+00   9.3720000E-02
       -1   -1    0    0    0  500  0.00000000000E+00  0.00000000000E+00  4.63190195800E+02  4.63190195800E+02  0.00000000000E+00  0.0000E+00  9.0
        1   -1    0    0  500    0  0.00000000000E+00  0.00000000000E+00 -5.78669473240E+02  5.78669473240E+02  0.00000000000E+00  0.0000E+00  9.0
       13    1    1    2    0    0  3.18233103650E+02 -3.85863484010E+02  7.67719342950E+01  5.06020629638E+02  1.05700000000E-01  0.0000E+00  9.0
      -13    1    1    2    0    0 -3.18233103650E+02  3.85863484010E+02 -1.92251211740E+02  5.35839039394E+02  1.05700000000E-01  0.0000E+00  9.0
</event>
<event>
 4    1   7.6478753E-02   1.0000000E+03  -1.0000000E+00   9.4100000E-02
       -1   -1    0    0    0  500  0.00000000000E+00  0.00000000000E+00  1.18260196720E+02  1.18260196720E+02  0.00000000000E+00  0.0000E+00  9.0
        1   -1    0    0  500    0  0.00000000000E+00  0.00000000000E+00 -2.11417702200E+03  2.11417702200E+03  0.00000000000E+00  0.0000E+00  9.0
       13    1    1    2    0    0  4.60813510210E+02 -2.30806145500E+01 -5.67741879660E+02  7.31582298209E+02  1.05700000000E-01  0.0000E+00  9.0
      -13    1    1    2    0    0 -4.60813510210E+02  2.30806145500E+01 -1.42817494560E+03  1.50085492049E+03  1.05700000000E-01  0.0000E+00  9.0
</event>
<event>
 4    1   7.6478753E-02   1.0030000E+03  -1.0000000E+00   9.4070000E-02
       -3   -1    0    0    0  500  0.00000000000E+00  0.00000000000E+00  1.44474075160E+03  1.44474076544E+03  2.00000000000E-01  0.0000E+00  9.0
        3   -1    0    0  500    0  0.00000000000E+00  0.00000000000E+00 -1.74076069270E+02  1.74076184162E+02  2.00000000000E-01  0.0000E+00  9.0
       13    1    1    2    0    0  2.32228712080E+02  1.02711509370E+02 -6.26451944060E+01  2.61542081559E+02  1.05700000000E-01  0.0000E+00  9.0
      -13    1    1    2    0    0 -2.32228712080E+02 -1.02711509370E+02  1.33330987680E+03  1.35727486811E+03  1.05700000000E-01  0.0000E+00  9.0
</event>
<event>
 4    1   7.6478753E-02   1.0020000E+03  -1.0000000E+00   9.4080000E-02
       -3   -1    0    0    0  500  0.00000000000E+00  0.00000000000E+00  3.77918326480E+02  3.77918379401E+02  2.00000000000E-01  0.0000E+00  9.0
        3   -1    0    0  500    0  0.00000000000E+00  0.00000000000E+00 -6.63526879920E+02  6.63526910062E+02  2.00000000000E-01  0.0000E+00  9.0
       13    1    1    2    0    0 -4.97840066530E+02  4.07171792710E+01 -1.05945694530E+02  5.10614455232E+02  1.05700000000E-01  0.0000E+00  9.0
      -13    1    1    2    0    0  4.97840066530E+02 -4.07171792710E+01 -1.79662858910E+02  5.30830834235E+02  1.05700000000E-01  0.0000E+00  9.0
</event>
<event>
 4    1   7.6478753E-02   9.9410000E+02  -1.0000000E+00   9.4160000E-02
       -1   -1    0    0    0  500  0.00000000000E+00  0.00000000000E+00  1.67291634730E+02  1.67291634730E+02  0.00000000000E+00  0.0000E+00  9.0
        1   -1    0    0  500    0  0.00000000000E+00  0.00000000000E+00 -1.47690078070E+03  1.47690078070E+03  0.00000000000E+00  0.0000E+00  9.0
       13    1    1    2    0    0  4.90550261820E+02 -8.00531504230E+01 -6.63085405990E+02  8.28691940997E+02  1.05700000000E-01  0.0000E+00  9.0
      -13    1    1    2    0    0 -4.90550261820E+02  8.00531504230E+01 -6.46523739980E+02  8.15500474429E+02  1.05700000000E-01  0.0000E+00  9.0
</event>
<event>
 4    1   7.6478753E-02   1.0410000E+03  -1.0000000E+00   9.3670000E-02
        1   -1    0    0  500    0  0.00000000000E+00  0.00000000000E+00  2.04936436970E+03  2.04936436970E+03  0.00000000000E+00  0.0000E+00  9.0
       -1   -1    0    0    0  500  0.00000000000E+00  0.00000000000E+00 -1.32118434140E+02  1.32118434140E+02  0.00000000000E+00  0.0000E+00  9.0
       13    1    1    2    0    0 -3.00331241210E+02  4.15547123440E+02  7.72539271240E+02  9.27197499472E+02  1.05700000000E-01  0.0000E+00  9.0
      -13    1    1    2    0    0  3.00331241210E+02 -4.15547123440E+02  1.14470666430E+03  1.25428530435E+03  1.05700000000E-01  0.0000E+00  9.0
</event>
<event>
 4    1   7.6478753E-02   1.0000000E+03  -1.0000000E+00   9.4090000E-02
       -2   -1    0    0    0  500  0.00000000000E+00  0.00000000000E+00  3.37258261750E+02  3.37258261750E+02  0.00000000000E+00  0.0000E+00  9.0
        2   -1    0    0  500    0  0.00000000000E+00  0.00000000000E+00 -7.41854184620E+02  7.41854184620E+02  0.00000000000E+00  0.0000E+00  9.0
       13    1    1    2    0    0  3.39744094910E+02  2.32676484510E+02 -5.08600058110E+02  6.54399286943E+02  1.05700000000E-01  0.0000E+00  9.0
      -13    1    1    2    0    0 -3.39744094910E+02 -2.32676484510E+02  1.04004135240E+02  4.24713159426E+02  1.05700000000E-01  0.0000E+00  9.0
</event>
<event>
 4    1   7.6478753E-02   1.0010000E+03  -1.0000000E+00   9.4090000E-02
       -1   -1    0    0    0  500  0.00000000000E+00  0.00000000000E+00  5.00926303780E+02  5.00926303780E+02  0.00000000000E+00  0.0000E+00  9.0
        1   -1    0    0  500    0  0.00000000000E+00  0.00000000000E+00 -4.99860970980E+02  4.99860970980E+02  0.00000000000E+00  0.0000E+00  9.0
       13    1    1    2    0    0 -1.21557473690E+02 -2.26358922740E+02  4.29926570680E+02  5.00850724930E+02  1.05700000000E-01  0.0000E+00  9.0
      -13    1    1    2    0    0  1.21557473690E+02  2.26358922740E+02 -4.28861237890E+02  4.99936549825E+02  1.05700000000E-01  0.0000E+00  9.0
</event>
<event>
 4    1   7.6478753E-02   1.0120000E+03  -1.0000000E+00   9.3970000E-02
        1   -1    0    0  500    0  0.00000000000E+00  0.00000000000E+00  8.71863595570E+02  8.71863595570E+02  0.00000000000E+00  0.0000E+00  9.0
       -1   -1    0    0    0  500  0.00000000000E+00  0.00000000000E+00 -2.93538636030E+02  2.93538636030E+02  0.00000000000E+00  0.0000E+00  9.0
       13    1    1    2    0    0 -2.61179193440E+02  4.17525414520E+02  1.55909981240E+02  5.16575237772E+02  1.05700000000E-01  0.0000E+00  9.0
      -13    1    1    2    0    0  2.61179193440E+02 -4.17525414520E+02  4.22414978300E+02  6.48826993829E+02  1.05700000000E-01  0.0000E+00  9.0
</event>
<event>
 4    1   7.6478753E-02   9.9240000E+02  -1.0000000E+00   9.4180000E-02
        2   -1    0    0  500    0  0.00000000000E+00  0.00000000000E+00  2.30108380310E+03  2.30108380310E+03  0.00000000000E+00  0.0000E+00  9.0
       -2   -1    0    0    0  500  0.00000000000E+00  0.00000000000E+00 -1.06999745510E+02  1.06999745510E+02  0.00000000000E+00  0.0000E+00  9.0
       13    1    1    2    0    0 -3.34524278220E+02 -2.07067234350E+02  1.83076677180E+03  1.87256249993E+03  1.05700000000E-01  0.0000E+00  9.0
      -13    1    1    2    0    0  3.34524278220E+02  2.07067234350E+02  3.63317285800E+02  5.35521048693E+02  1.05700000000E-01  0.0000E+00  9.0
</event>
<event>
 4    1   7.6478753E-02   9.9990000E+02  -1.0000000E+00   9.4100000E-02
        4   -1    0    0  500    0  0.00000000000E+00  0.00000000000E+00  8.53934660500E+02  8.53935650036E+02  1.30000000000E+00  0.0000E+00  9.0
       -4   -1    0    0    0  500  0.00000000000E+00  0.00000000000E+00 -2.92723662790E+02  2.92726549457E+02  1.30000000000E+00  0.0000E+00  9.0
       13    1    1    2    0    0 -1.46308591780E+02 -3.60227425880E+02  6.41050333850E+02  7.49743652248E+02  1.05700000000E-01  0.0000E+00  9.0
      -13    1    1    2    0    0  1.46308591780E+02  3.60227425880E+02 -7.98393361440E+01  3.96918547253E+02  1.05700000000E-01  0.0000E+00  9.0
</event>
<event>
 4    1   7.6478753E-02   1.0000000E+03  -1.0000000E+00   9.4100000E-02
       -2   -1    0    0    0  500  0.00000000000E+00  0.00000000000E+00  6.30756917790E+02  6.30756917790E+02  0.00000000000E+00  0.0000E+00  9.0
        2   -1    0    0  500    0  0.00000000000E+00  0.00000000000E+00 -3.96437025530E+02  3.96437025530E+02  0.00000000000E+00  0.0000E+00  9.0
       13    1    1    2    0    0 -4.37705786600E+02 -1.52256495790E+02 -7.57753294920E+01  4.69585250903E+02  1.05700000000E-01  0.0000E+00  9.0
      -13    1    1    2    0    0  4.37705786600E+02  1.52256495790E+02  3.10095221760E+02  5.57608692422E+02  1.05700000000E-01  0.0000E+00  9.0
</event>
<event>
 4    1   7.6478753E-02   9.9170000E+02  -1.0000000E+00   9.4190000E-02
        1   -1    0    0  500    0  0.00000000000E+00  0.00000000000E+00  1.05566973780E+03  1.05566973780E+03  0.00000000000E+00  0.0000E+00  9.0
       -1   -1    0    0    0  500  0.00000000000E+00  0.00000000000E+00 -2.32879574900E+02  2.32879574900E+02  0.00000000000E+00  0.0000E+00  9.0
       13    1    1    2    0    0  3.87396257580E+02 -2.66477814020E+02  2.06941000560E+02  5.13722565824E+02  1.05700000000E-01  0.0000E+00  9.0
      -13    1    1    2    0    0 -3.87396257580E+02  2.66477814020E+02  6.15849162310E+02  7.74826746855E+02  1.05700000000E-01  0.0000E+00  9.0
</event>
<event>
 4    1   7.6478753E-02   1.0020000E+03  -1.0000000E+00   9.4080000E-02
        3   -1    0    0  500    0  0.00000000000E+00  0.00000000000E+00  5.48097564690E+02  5.48097601180E+02  2.00000000000E-01  0.0000E+00  9.0
       -3   -1    0    0    0  500  0.00000000000E+00  0.00000000000E+00 -4.57761953750E+02  4.57761997441E+02  2.00000000000E-01  0.0000E+00  9.0
       13    1    1    2    0    0 -1.33034176370E+02 -3.77901140900E+02  3.47038428060E+02  5.30040607972E+02  1.05700000000E-01  0.0000E+00  9.0
      -13    1    1    2    0    0  1.33034176370E+02  3.77901140900E+02 -2.56702817120E+02  4.75818990653E+02  1.05700000000E-01  0.0000E+00  9.0
</event>
<event>
 4    1   7.6478753E-02   9.9940000E+02  -1.0000000E+00   9.4100000E-02
       -1   -1    0    0    0  500  0.00000000000E+00  0.00000000000E+00  4.56054043550E+02  4.56054043550E+02  0.00000000000E+00  0.0000E+00  9.0
        1   -1    0    0  500    0  0.00000000000E+00  0.00000000000E+00 -5.47527855380E+02  5.47527855380E+02  0.00000000000E+00  0.0000E+00  9.0
       13    1    1    2    0    0  1.13577659720E+02 -4.44696361550E+02 -2.44167399260E+02  5.19877359381E+02  1.05700000000E-01  0.0000E+00  9.0
      -13    1    1    2    0    0 -1.13577659720E+02  4.44696361550E+02  1.52693587430E+02  4.83704539547E+02  1.05700000000E-01  0.0000E+00  9.0
</event>
<event>
 4    1   7.6478753E-02   1.0530000E+03  -1.0000000E+00   9.3540000E-02
        2   -1    0    0  500    0  0.00000000000E+00  0.00000000000E+00  4.59554981280E+03  4.59554981280E+03  0.00000000000E+00  0.0000E+00  9.0
       -2   -1    0    0    0  500  0.00000000000E+00  0.00000000000E+00 -6.03132693350E+01  6.03132693350E+01  0.00000000000E+00  0.0000E+00  9.0
       13    1    1    2    0    0 -1.59481491920E+02 -4.79505208320E+02  2.92067820890E+03  2.96407165942E+03  1.05700000000E-01  0.0000E+00  9.0
      -13    1    1    2    0    0  1.59481491920E+02  4.79505208320E+02  1.61455833460E+03  1.69179142274E+03  1.05700000000E-01  0.0000E+00  9.0
</event>
<event>
 4    1   7.6478753E-02   9.9840000E+02  -1.0000000E+00   9.4110000E-02
       -1   -1    0    0    0  500  0.00000000000E+00  0.00000000000E+00  7.53634251530E+02  7.53634251530E+02  0.00000000000E+00  0.0000E+00  9.0
        1   -1    0    0  500    0  0.00000000000E+00  0.00000000000E+00 -3.30669447680E+02  3.30669447680E+02  0.00000000000E+00  0.0000E+00  9.0
       13    1    1    2    0    0 -3.55172190420E+02 -1.50513448720E+02 -1.32641840680E+02  4.07915986650E+02  1.05700000000E-01  0.0000E+00  9.0
      -13    1    1    2    0    0  3.55172190420E+02  1.50513448720E+02  5.55606644520E+02  6.76387712559E+02  1.05700000000E-01  0.0000E+00  9.0
</event>
<event>
 4    1   7.6478753E-02   1.0120000E+03  -1.0000000E+00   9.3970000E-02
       -1   -1    0    0    0  500  0.00000000000E+00  0.00000000000E+00  1.15649707990E+02  1.15649707990E+02  0.00000000000E+00  0.0000E+00  9.0
        1   -1    0    0  500    0  0.00000000000E+00  0.00000000000E+00 -2.21375936350E+03  2.21375936350E+03  0.00000000000E+00  0.0000E+00  9.0
       13    1    1    2    0    0 -4.18427464990E+02  1.78748552000E+02 -5.39579386670E+02  7.05817620913E+02  1.05700000000E-01  0.0000E+00  9.0
      -13    1    1    2    0    0  4.18427464990E+02 -1.78748552000E+02 -1.55853026890E+03  1.62359145063E+03  1.05700000000E-01  0.0000E+00  9.0
</event>
<event>
 4    1   7.6478753E-02   9.9910000E+02  -1.0000000E+00   9.4110000E-02
        1   -1    0    0  500    0  0.00000000000E+00  0.00000000000E+00  7.13757438460E+02  7.13757438460E+02  0.00000000000E+00  0.0000E+00  9.0
       -1   -1    0    0    0  500  0.00000000000E+00  0.00000000000E+00 -3.49602304030E+02  3.49602304030E+02  0.00000000000E+00  0.0000E+00  9.0
       13    1    1    2    0    0 -2.58716465760E+02  8.47629870580E+01  6.27854636110E+02  6.84339410591E+02  1.05700000000E-01  0.0000E+00  9.0
      -13    1    1    2    0    0  2.58716465760E+02 -8.47629870580E+01 -2.63699501690E+02  3.79020331901E+02  1.05700000000E-01  0.0000E+00  9.0
</event>
<event>
 4    1   7.6478753E-02   9.9810000E+02  -1.0000000E+00   9.4120000E-02
       -1   -1    0    0    0  500  0.00000000000E+00  0.00000000000E+00  3.65629012790E+02  3.65629012790E+02  0.00000000000E+00  0.0000E+00  9.0
        1   -1    0    0  500    0  0.00000000000E+00  0.00000000000E+00 -6.81102017350E+02  6.81102017350E+02  0.00000000000E+00  0.0000E+00  9.0
       13    1    1    2    0    0  3.94452340450E+02 -1.14039081200E+01 -4.78096304420E+02  6.19918370013E+02  1.05700000000E-01  0.0000E+00  9.0
      -13    1    1    2    0    0 -3.94452340450E+02  1.14039081200E+01  1.62623299870E+02  4.26812660121E+02  1.05700000000E-01  0.0000E+00  9.0
</event>
<event>
 4    1   7.6478753E-02   9.8790000E+02  -1.0000000E+00   9.4230000E-02
       -3   -1    0    0    0  500  0.00000000000E+00  0.00000000000E+00  1.53488886020E+02  1.53489016323E+02  2.00000000000E-01  0.0000E+00  9.0
        3   -1    0    0  500    0  0.00000000000E+00  0.00000000000E+00 -1.58974268900E+03  1.58974270158E+03  2.00000000000E-01  0.0000E+00  9.0
       13    1    1    2    0    0 -3.71107660730E+02 -2.34994961940E+02 -3.19393765690E+02  5.43098441099E+02  1.05700000000E-01  0.0000E+00  9.0
      -13    1    1    2    0    0  3.71107660730E+02  2.34994961940E+02 -1.11686003730E+03  1.20013327680E+03  1.05700000000E-01  0.0000E+00  9.0
</event>
<event>
 4    1   7.6478753E-02   9.9990000E+02  -1.0000000E+00   9.4100000E-02
        1   -1    0    0  500    0  0.00000000000E+00  0.00000000000E+00  7.20735289480E+02  7.20735289480E+02  0.00000000000E+00  0.0000E+00  9.0
       -1   -1    0    0    0  500  0.00000000000E+00  0.00000000000E+00 -3.46783995270E+02  3.46783995270E+02  0.00000000000E+00  0.0000E+00  9.0
       13    1    1    2    0    0  3.18489201990E+02 -7.47036075870E+01 -2.16651217850E+02  3.92369420494E+02  1.05700000000E-01  0.0000E+00  9.0
      -13    1    1    2    0    0 -3.18489201990E+02  7.47036075870E+01  5.90602512070E+02  6.75149864257E+02  1.05700000000E-01  0.0000E+00  9.0
</event>
<event>
 4    1   7.6478753E-02   1.0060000E+03  -1.0000000E+00   9.4030000E-02
        2   -1    0    0  500    0  0.00000000000E+00  0.00000000000E+00  9.46762691020E+02  9.46762691020E+02  0.00000000000E+00  0.0000E+00  9.0
       -2   -1    0    0    0  500  0.00000000000E+00  0.00000000000E+00 -2.67272553630E+02  2.67272553630E+02  0.00000000000E+00  0.0000E+00  9.0
       13    1    1    2    0    0  2.42579039510E+02  1.32888884380E+01  8.71277272830E+02  9.04513837533E+02  1.05700000000E-01  0.0000E+00  9.0
      -13    1    1    2    0    0 -2.42579039510E+02 -1.32888884380E+01 -1.91787135440E+02  3.09521407108E+02  1.05700000000E-01  0.0000E+00  9.0
</event>
<event>
 4    1   7.6478753E-02   1.0020000E+03  -1.0000000E+00   9.4080000E-02
        1   -1    0    0  500    0  0.00000000000E+00  0.00000000000E+00  4.22274082720E+02  4.22274082720E+02  0.00000000000E+00  0.0000E+00  9.0
       -1   -1    0    0    0  500  0.00000000000E+00  0.00000000000E+00 -5.93960190360E+02  5.93960190360E+02  0.00000000000E+00  0.0000E+00  9.0
       13    1    1    2    0    0 -1.71678185780E+01 -9.82604571110E+01 -5.83779626420E+02  5.92240250930E+02  1.05700000000E-01  0.0000E+00  9.0
      -13    1    1    2    0    0  1.71678185780E+01  9.82604571110E+01  4.12093518780E+02  4.23994022151E+02  1.05700000000E-01  0.0000E+00  9.0
</event>
<event>
 4    1   7.6478753E-02   9.9830000E+02  -1.0000000E+00   9.4120000E-02
       -1   -1    0    0    0  500  0.00000000000E+00  0.00000000000E+00  3.92496727670E+02  3.92496727670E+02  0.00000000000E+00  0.0000E+00  9.0
        1   -1    0    0  500    0  0.00000000000E+00  0.00000000000E+00 -6.34730662450E+02  6.34730662450E+02  0.00000000000E+00  0.0000E+00  9.0
       13    1    1    2    0    0  1.11653922570E+02  4.63784392820E+02  3.00023794090E+01  4.77977735247E+02  1.05700000000E-01  0.0000E+00  9.0
      -13    1    1    2    0    0 -1.11653922570E+02 -4.63784392820E+02 -2.72236314180E+02  5.49249654874E+02  1.05700000000E-01  0.0000E+00  9.0
</event>
<event>
 4    1   7.6478753E-02   1.0120000E+03  -1.0000000E+00   9.3970000E-02
       -1   -1    0    0    0  500  0.00000000000E+00  0.00000000000E+00  1.10340165720E+02  1.10340165720E+02  0.00000000000E+00  0.0000E+00  9.0
        1   -1    0    0  500    0  0.00000000000E+00  0.00000000000E+00 -2.31867689880E+03  2.31867689880E+03  0.00000000000E+00  0.0000E+00  9.0
       13    1    1    2    0    0  1.04015678610E+02  4.82505916340E+02 -1.36951058020E+03  1.45574395453E+03  1.05700000000E-01  0.0000E+00  9.0
      -13    1    1    2    0    0 -1.04015678610E+02 -4.82505916340E+02 -8.38826152920E+02  9.73273110024E+02  1.05700000000E-01  0.0000E+00  9.0
</event>
<event>
 4    1   7.6478753E-02   1.0020000E+03  -1.0000000E+00   9.4080000E-02
       -3   -1    0    0    0  500  0.00000000000E+00  0.00000000000E+00  7.85909536410E+02  7.85909561858E+02  2.00000000000E-01  0.0000E+00  9.0
        3   -1    0    0  500    0  0.00000000000E+00  0.00000000000E+00 -3.19091627610E+02  3.19091690288E+02  2.00000000000E-01  0.0000E+00  9.0
       13    1    1    2    0    0  4.86208837640E+02  1.19594335050E+02  2.42986092660E+02  5.56546575925E+02  1.05700000000E-01  0.0000E+00  9.0
      -13    1    1    2    0    0 -4.86208837640E+02 -1.19594335050E+02  2.23831816140E+02  5.48454676217E+02  1.05700000000E-01  0.0000E+00  9.0
</event>
<event>
 4    1   7.6478753E-02   9.9790000E+02  -1.0000000E+00   9.4120000E-02
       -1   -1    0    0    0  500  0.00000000000E+00  0.00000000000E+00  1.69080614350E+02  1.69080614350E+02  0.00000000000E+00  0.0000E+00  9.0
        1   -1    0    0  500    0  0.00000000000E+00  0.00000000000E+00 -1.47244374500E+03  1.47244374500E+03  0.00000000000E+00  0.0000E+00  9.0
       13    1    1    2    0    0  2.06874835260E+02 -2.39314245730E+02 -1.69523785190E+01  3.16789993502E+02  1.05700000000E-01  0.0000E+00  9.0
      -13    1    1    2    0    0 -2.06874835260E+02  2.39314245730E+02 -1.28641075210E+03  1.32473436581E+03  1.05700000000E-01  0.0000E+00  9.0
</event>
<event>
 4    1   7.6478753E-02   1.0040000E+03  -1.0000000E+00   9.4050000E-02
       -1   -1    0    0    0  500  0.00000000000E+00  0.00000000000E+00  3.15261002300E+02  3.15261002300E+02  0.00000000000E+00  0.0000E+00  9.0
        1   -1    0    0  500    0  0.00000000000E+00  0.00000000000E+00 -8.00068536130E+02  8.00068536130E+02  0.00000000000E+00  0.0000E+00  9.0
       13    1    1    2    0    0 -3.26001893670E+02 -3.19995906380E+02 -1.06656903950E+01  4.56933674509E+02  1.05700000000E-01  0.0000E+00  9.0
      -13    1    1    2    0    0  3.26001893670E+02  3.19995906380E+02 -4.74141843440E+02  6.58395863937E+02  1.05700000000E-01  0.0000E+00  9.0
</event>
<event>
 4    1   7.6478753E-02   1.0030000E+03  -1.0000000E+00   9.4060000E-02
        1   -1    0    0  500    0  0.00000000000E+00  0.00000000000E+00  1.21786274240E+02  1.21786274240E+02  0.00000000000E+00  0.0000E+00  9.0
       -1   -1    0    0    0  500  0.00000000000E+00  0.00000000000E+00 -2.06714024920E+03  2.06714024920E+03  0.00000000000E+00  0.0000E+00  9.0
       13    1    1    2    0    0 -6.77702010780E+01  4.97129303220E+02 -9.82173530340E+02  1.10290307786E+03  1.05700000000E-01  0.0000E+00  9.0
      -13    1    1    2    0    0  6.77702010780E+01 -4.97129303220E+02 -9.63180444620E+02  1.08602344558E+03  1.05700000000E-01  0.0000E+00  9.0
</event>
<event>
 4    1   7.6478753E-02   1.0050000E+03  -1.0000000E+00   9.4050000E-02
       -1   -1    0    0    0  500  0.00000000000E+00  0.00000000000E+00  8.29089470960E+02  8.29089470960E+02  0.00000000000E+00  0.0000E+00  9.0
        1   -1    0    0  500    0  0.00000000000E+00  0.00000000000E+00 -3.04284511610E+02  3.04284511610E+02  0.00000000000E+00  0.0000E+00  9.0
       13    1    1    2    0    0 -2.31824803960E+02  1.20623163020E+02  7.46346875130E+02  7.90775794000E+02  1.05700000000E-01  0.0000E+00  9.0
      -13    1    1    2    0    0  2.31824803960E+02 -1.20623163020E+02 -2.21541915780E+02  3.42598188565E+02  1.05700000000E-01  0.0000E+00  9.0
</event>
<event>
 4    1   7.6478753E-02   1.0030000E+03  -1.0000000E+00   9.4060000E-02
       -2   -1    0    0    0  500  0.00000000000E+00  0.00000000000E+00  2.13583645970E+02  2.13583645970E+02  0.00000000000E+00  0.0000E+00  9.0
        2   -1    0    0  500    0  0.00000000000E+00  0.00000000000E+00 -1.17831068850E+03  1.17831068850E+03  0.00000000000E+00  0.0000E+00  9.0
       13    1    1    2    0    0  3.58264449950E+02 -1.24310015140E+02 -9.37975951410E+02  1.01173380519E+03  1.05700000000E-01  0.0000E+00  9.0
      -13    1    1    2    0    0 -3.58264449950E+02  1.24310015140E+02 -2.67510910940E+01  3.80160529263E+02  1.05700000000E-01  0.0000E+00  9.0
</event>
<event>
 4    1   7.6478753E-02   1.0010000E+03  -1.0000000E+00   9.4090000E-02
        1   -1    0    0  500    0  0.00000000000E+00  0.00000000000E+00  1.22622155850E+03  1.22622155850E+03  0.00000000000E+00  0.0000E+00  9.0
       -1   -1    0    0    0  500  0.00000000000E+00  0.00000000000E+00 -2.04326680060E+02  2.04326680060E+02  0.00000000000E+00  0.0000E+00  9.0
       13    1    1    2    0    0 -8.09251729630E+01  3.69628242680E+02  4.26963452680E+01  3.80784598530E+02  1.05700000000E-01  0.0000E+00  9.0
      -13    1    1    2    0    0  8.09251729630E+01 -3.69628242680E+02  9.79198533190E+02  1.04976364005E+03  1.05700000000E-01  0.0000E+00  9.0
</event>
<event>
 4    1   7.6478753E-02   1.0000000E+03  -1.0000000E+00   9.4090000E-02
        1   -1    0    0  500    0  0.00000000000E+00  0.00000000000E+00  1.05478570030E+03  1.05478570030E+03  0.00000000000E+00  0.0000E+00  9.0
       -1   -1    0    0    0  500  0.00000000000E+00  0.00000000000E+00 -2.37160092210E+02  2.37160092210E+02  0.00000000000E+00  0.0000E+00  9.0
       13    1    1    2    0    0  1.63352250220E+02  2.51445048140E+02  9.25827551050E+02  9.73172767468E+02  1.05700000000E-01  0.0000E+00  9.0
      -13    1    1    2    0    0 -1.63352250220E+02 -2.51445048140E+02 -1.08201942940E+02  3.18773025074E+02  1.05700000000E-01  0.0000E+00  9.0
</event>
<event>
 4    1   7.6478753E-02   1.0000000E+03  -1.0000000E+00   9.4100000E-02
        1   -1    0    0  500    0  0.00000000000E+00  0.00000000000E+00  1.18858717990E+03  1.18858717990E+03  0.00000000000E+00  0.0000E+00  9.0
       -1   -1    0    0    0  500  0.00000000000E+00  0.00000000000E+00 -2.10318826070E+02  2.10318826070E+02  0.00000000000E+00  0.0000E+00  9.0
       13    1    1    2    0    0 -1.42925893890E+02  9.06939458620E+01  1.14728154670E+03  1.15970175542E+03  1.05700000000E-01  0.0000E+00  9.0
      -13    1    1    2    0    0  1.42925893890E+02 -9.06939458620E+01 -1.69013192850E+02  2.39204250569E+02  1.05700000000E-01  0.0000E+00  9.0
</event>
<event>
 4    1   7.6478753E-02   9.6430000E+02  -1.0000000E+00   9.4490000E-02
       -1   -1    0    0    0  500  0.00000000000E+00  0.00000000000E+00  1.27775777280E+02  1.27775777280E+02  0.00000000000E+00  0.0000E+00  9.0
        1   -1    0    0  500    0  0.00000000000E+00  0.00000000000E+00 -1.81933320770E+03  1.81933320770E+03  0.00000000000E+00  0.0000E+00  9.0
       13    1    1    2    0    0  7.81004206480E+00  4.75184601880E+02 -6.81672064800E+02  8.30986292139E+02  1.05700000000E-01  0.0000E+00  9.0
      -13    1    1    2    0    0 -7.81004206480E+00 -4.75184601880E+02 -1.00988536560E+03  1.11612269283E+03  1.05700000000E-01  0.0000E+00  9.0
</event>
<event>
 4    1   7.6478753E-02   1.0020000E+03  -1.0000000E+00   9.4070000E-02
       -1   -1    0    0    0  500  0.00000000000E+00  0.00000000000E+00  6.70556761550E+02  6.70556761550E+02  0.00000000000E+00  0.0000E+00  9.0
        1   -1    0    0  500    0  0.00000000000E+00  0.00000000000E+00 -3.74670822910E+02  3.74670822910E+02  0.00000000000E+00  0.0000E+00  9.0
       13    1    1    2    0    0 -2.59361442390E+02 -7.75197837170E+01  5.87788115910E+02  6.47126382590E+02  1.05700000000E-01  0.0000E+00  9.0
      -13    1    1    2    0    0  2.59361442390E+02  7.75197837170E+01 -2.91902177270E+02  3.98101201874E+02  1.05700000000E-01  0.0000E+00  9.0
</event>
<event>
 4    1   7.6478753E-02   9.9950000E+02  -1.0000000E+00   9.4100000E-02
       -1   -1    0    0    0  500  0.00000000000E+00  0.00000000000E+00  2.70140673660E+02  2.70140673660E+02  0.00000000000E+00  0.0000E+00  9.0
        1   -1    0    0  500    0  0.00000000000E+00  0.00000000000E+00 -9.24535788400E+02  9.24535788400E+02  0.00000000000E+00  0.0000E+00  9.0
       13    1    1    2    0    0 -8.29101268190E+01 -2.77219402390E+02  1.59833630740E+02  3.30562379709E+02  1.05700000000E-01  0.0000E+00  9.0
      -13    1    1    2    0    0  8.29101268190E+01  2.77219402390E+02 -8.14228745480E+02  8.64114082358E+02  1.05700000000E-01  0.0000E+00  9.0
</event>
<event>
 4    1   7.6478753E-02   1.0010000E+03  -1.0000000E+00   9.4080000E-02
       -2   -1    0    0    0  500  0.00000000000E+00  0.00000000000E+00  3.33659681490E+02  3.33659681490E+02  0.00000000000E+00  0.0000E+00  9.0
        2   -1    0    0  500    0  0.00000000000E+00  0.00000000000E+00 -7.51170232670E+02  7.51170232670E+02  0.00000000000E+00  0.0000E+00  9.0
       13    1    1    2    0    0 -3.69350917100E+02 -2.46623716870E+02 -4.59105565190E+02  6.38765441180E+02  1.05700000000E-01  0.0000E+00  9.0
      -13    1    1    2    0    0  3.69350917100E+02  2.46623716870E+02  4.15950140190E+01  4.46064472973E+02  1.05700000000E-01  0.0000E+00  9.0
</event>
<event>
 4    1   7.6478753E-02   9.9250000E+02  -1.0000000E+00   9.4180000E-02
       -1   -1    0    0    0  500  0.00000000000E+00  0.00000000000E+00  7.80200526130E+02  7.80200526130E+02  0.00000000000E+00  0.0000E+00  9.0
        1   -1    0    0  500    0  0.00000000000E+00  0.00000000000E+00 -3.15622748770E+02  3.15622748770E+02  0.00000000000E+00  0.0000E+00  9.0
       13    1    1    2    0    0 -1.25663605590E+02  1.73887859690E+02  7.26346663040E+02  7.57369008872E+02  1.05700000000E-01  0.0000E+00  9.0
      -13    1    1    2    0    0  1.25663605590E+02 -1.73887859690E+02 -2.61768885680E+02  3.38454266039E+02  1.05700000000E-01  0.0000E+00  9.0
</event>
<event>
 4    1   7.6478753E-02   9.9490000E+02  -1.0000000E+00   9.4150000E-02
        1   -1    0    0  500    0  0.00000000000E+00  0.00000000000E+00  6.96287367330E+02  6.96287367330E+02  0.00000000000E+00  0.0000E+00  9.0
       -1   -1    0    0    0  500  0.00000000000E+00  0.00000000000E+00 -3.55419435490E+02  3.55419435490E+02  0.00000000000E+00  0.0000E+00  9.0
       13    1    1    2    0    0  8.20075235110E+00  8.71141404930E+01  6.88089265520E+02  6.93630286471E+02  1.05700000000E-01  0.0000E+00  9.0
      -13    1    1    2    0    0 -8.20075235110E+00 -8.71141404930E+01 -3.47221333690E+02  3.58076516341E+02  1.05700000000E-01  0.0000E+00  9.0
</event>
<event>
 4    1   7.6478753E-02   9.9530000E+02  -1.0000000E+00   9.4150000E-02
       -2   -1    0    0    0  500  0.00000000000E+00  0.00000000000E+00  1.78734491900E+02  1.78734491900E+02  0.00000000000E+00  0.0000E+00  9.0
        2   -1    0    0  500    0  0.00000000000E+00  0.00000000000E+00 -1.38561167530E+03  1.38561167530E+03  0.00000000000E+00  0.0000E+00  9.0
       13    1    1    2    0    0  2.38455207070E+02 -3.93285640850E+02 -3.04718489540E+02  5.51713558033E+02  1.05700000000E-01  0.0000E+00  9.0
      -13    1    1    2    0    0 -2.38455207070E+02  3.93285640850E+02 -9.02158693860E+02  1.01263260917E+03  1.05700000000E-01  0.0000E+00  9.0
</event>
<event>
 4    1   7.6478753E-02   9.9280000E+02  -1.0000000E+00   9.4180000E-02
        2   -1    0    0  500    0  0.00000000000E+00  0.00000000000E+00  2.01674844410E+03  2.01674844410E+03  0.00000000000E+00  0.0000E+00  9.0
       -2   -1    0    0    0  500  0.00000000000E+00  0.00000000000E+00 -1.22175273530E+02  1.22175273530E+02  0.00000000000E+00  0.0000E+00  9.0
       13    1    1    2    0    0 -3.78298922770E+01 -4.68630882290E+02  1.29032551860E+03  1.37331204018E+03  1.05700000000E-01  0.0000E+00  9.0
      -13    1    1    2    0    0  3.78298922770E+01  4.68630882290E+02  6.04247652000E+02  7.65611677488E+02  1.05700000000E-01  0.0000E+00  9.0
</event>
<event>
 4    1   7.6478753E-02   1.0000000E+03  -1.0000000E+00   9.4100000E-02
        1   -1    0    0  500    0  0.00000000000E+00  0.00000000000E+00  1.83229926280E+03  1.83229926280E+03  0.00000000000E+00  0.0000E+00  9.0
       -1   -1    0    0    0  500  0.00000000000E+00  0.00000000000E+00 -1.36447262030E+02  1.36447262030E+02  0.00000000000E+00  0.0000E+00  9.0
       13    1    1    2    0    0  3.78336496740E+01 -4.67966601630E+02  5.09286516550E+02  6.92673727234E+02  1.05700000000E-01  0.0000E+00  9.0
      -13    1    1    2    0    0 -3.78336496740E+01  4.67966601630E+02  1.18656548420E+03  1.27607279759E+03  1.05700000000E-01  0.0000E+00  9.0
</event>
<event>
 4    1   7.6478753E-02   9.9170000E+02  -1.0000000E+00   9.4190000E-02
        1   -1    0    0  500    0  0.00000000000E+00  0.00000000000E+00  1.53560531620E+02  1.53560531620E+02  0.00000000000E+00  0.0000E+00  9.0
       -1   -1    0    0    0  500  0.00000000000E+00  0.00000000000E+00 -1.60117118390E+03  1.60117118390E+03  0.00000000000E+00  0.0000E+00  9.0
       13    1    1    2    0    0  2.74161510140E+02 -4.08143817760E+02 -6.10085040680E+02  7.83549409834E+02  1.05700000000E-01  0.0000E+00  9.0
      -13    1    1    2    0    0 -2.74161510140E+02  4.08143817760E+02 -8.37525611580E+02  9.71182305668E+02  1.05700000000E-01  0.0000E+00  9.0
</event>
<event>
 4    1   7.6478753E-02   9.9190000E+02  -1.0000000E+00   9.4190000E-02
       -3   -1    0    0    0  500  0.00000000000E+00  0.00000000000E+00  1.30344509860E+03  1.30344511394E+03  2.00000000000E-01  0.0000E+00  9.0
        3   -1    0    0  500    0  0.00000000000E+00  0.00000000000E+00 -1.88715412590E+02  1.88715518570E+02  2.00000000000E-01  0.0000E+00  9.0
       13    1    1    2    0    0  1.92509453850E+02  2.12680603180E+02 -5.12506136890E+01  2.91409617835E+02  1.05700000000E-01  0.0000E+00  9.0
      -13    1    1    2    0    0 -1.92509453850E+02 -2.12680603180E+02  1.16598029970E+03  1.20075101468E+03  1.05700000000E-01  0.0000E+00  9.0
</event>
<event>
 4    1   7.6478753E-02   8.0150000E+02  -1.0000000E+00   9.6550000E-02
        3   -1    0    0  500    0  0.00000000000E+00  0.00000000000E+00  3.66133234310E+02  3.66133288935E+02  2.00000000000E-01  0.0000E+00  9.0
       -3   -1    0    0    0  500  0.00000000000E+00  0.00000000000E+00 -4.38690308780E+02  4.38690354370E+02  2.00000000000E-01  0.0000E+00  9.0
       13    1    1    2    0    0  1.67418403820E+02 -2.84397088660E+02 -2.64603328710E+02  4.22995932265E+02  1.05700000000E-01  0.0000E+00  9.0
      -13    1    1    2    0    0 -1.67418403820E+02  2.84397088660E+02  1.92046254240E+02  3.81827711037E+02  1.05700000000E-01  0.0000E+00  9.0
</event>
<event>
 4    1   7.6478753E-02   9.9800000E+02  -1.0000000E+00   9.4120000E-02
       -1   -1    0    0    0  500  0.00000000000E+00  0.00000000000E+00  1.42215387150E+03  1.42215387150E+03  0.00000000000E+00  0.0000E+00  9.0
        1   -1    0    0  500    0  0.00000000000E+00  0.00000000000E+00 -1.75072178740E+02  1.75072178740E+02  0.00000000000E+00  0.0000E+00  9.0
       13    1    1    2    0    0 -2.74026202350E+02 -9.17911871290E+01  1.27457795010E+03  1.30692958634E+03  1.05700000000E-01  0.0000E+00  9.0
      -13    1    1    2    0    0  2.74026202350E+02  9.17911871290E+01 -2.74962573360E+01  2.90296463893E+02  1.05700000000E-01  0.0000E+00  9.0
</event>
<event>
 4    1   7.6478753E-02   1.0030000E+03  -1.0000000E+00   9.4070000E-02
       -3   -1    0    0    0  500  0.00000000000E+00  0.00000000000E+00  1.60718823180E+03  1.60718824424E+03  2.00000000000E-01  0.0000E+00  9.0
        3   -1    0    0  500    0  0.00000000000E+00  0.00000000000E+00 -1.56462352360E+02  1.56462480186E+02  2.00000000000E-01  0.0000E+00  9.0
       13    1    1    2    0    0 -1.15369404050E+02  3.10145752600E+02  1.38793544520E+03  1.42683751649E+03  1.05700000000E-01  0.0000E+00  9.0
      -13    1    1    2    0    0  1.15369404050E+02 -3.10145752600E+02  6.27904342470E+01  3.36813207954E+02  1.05700000000E-01  0.0000E+00  9.0
</event>
<event>
 4    1   7.6478753E-02   9.8780000E+02  -1.0000000E+00   9.4230000E-02
       -1   -1    0    0    0  500  0.00000000000E+00  0.00000000000E+00  1.61910953570E+02  1.61910953570E+02  0.00000000000E+00  0.0000E+00  9.0
        1   -1    0    0  500    0  0.00000000000E+00  0.00000000000E+00 -1.50654839790E+03  1.50654839790E+03  0.00000000000E+00  0.0000E+00  9.0
       13    1    1    2    0    0  1.21179451880E+02  4.31059696970E+02 -3.20313048660E+02  5.50542806895E+02  1.05700000000E-01  0.0000E+00  9.0
      -13    1    1    2    0    0 -1.21179451880E+02 -4.31059696970E+02 -1.02432439570E+03  1.11791654461E+03  1.05700000000E-01  0.0000E+00  9.0
</event>
<event>
 4    1   7.6478753E-02   9.6050000E+02  -1.0000000E+00   9.4530000E-02
        1   -1    0    0  500    0  0.00000000000E+00  0.00000000000E+00  3.12361319720E+02  3.12361319720E+02  0.00000000000E+00  0.0000E+00  9.0
       -1   -1    0    0    0  500  0.00000000000E+00  0.00000000000E+00 -7.38415389280E+02  7.38415389280E+02  0.00000000000E+00  0.0000E+00  9.0
       13    1    1    2    0    0  4.01014327660E+02  6.84075534450E+01 -4.92276930010E+02  6.38614650121E+02  1.05700000000E-01  0.0000E+00  9.0
      -13    1    1    2    0    0 -4.01014327660E+02 -6.84075534450E+01  6.62228604570E+01  4.12162058876E+02  1.05700000000E-01  0.0000E+00  9.0
</event>
<event>
 4    1   7.6478753E-02   1.0040000E+03  -1.0000000E+00   9.4050000E-02
        3   -1    0    0  500    0  0.00000000000E+00  0.00000000000E+00  2.00423072960E+03  2.00423073958E+03  2.00000000000E-01  0.0000E+00  9.0
       -3   -1    0    0    0  500  0.00000000000E+00  0.00000000000E+00 -1.25837657470E+02  1.25837816405E+02  2.00000000000E-01  0.0000E+00  9.0
       13    1    1    2    0    0  4.43370229770E+02  1.96096447770E+02  6.61253022330E+02  8.19930819147E+02  1.05700000000E-01  0.0000E+00  9.0
      -13    1    1    2    0    0 -4.43370229770E+02 -1.96096447770E+02  1.21714004980E+03  1.31013773683E+03  1.05700000000E-01  0.0000E+00  9.0
</event>
<event>
 4    1   7.6478753E-02   9.9480000E+02  -1.0000000E+00   9.4150000E-02
       -1   -1    0    0    0  500  0.00000000000E+00  0.00000000000E+00  2.74098695780E+02  2.74098695780E+02  0.00000000000E+00  0.0000E+00  9.0
        1   -1    0    0  500    0  0.00000000000E+00  0.00000000000E+00 -9.02615564750E+02  9.02615564750E+02  0.00000000000E+00  0.0000E+00  9.0
       13    1    1    2    0    0 -1.04540052880E+02  2.88554626090E+02 -7.77262091940E+02  8.35660676132E+02  1.05700000000E-01  0.0000E+00  9.0
      -13    1    1    2    0    0  1.04540052880E+02 -2.88554626090E+02  1.48745222970E+02  3.41053584387E+02  1.05700000000E-01  0.0000E+00  9.0
</event>
<event>
 4    1   7.6478753E-02   1.0930000E+03  -1.0000000E+00   9.3150000E-02
        1   -1    0    0  500    0  0.00000000000E+00  0.00000000000E+00  4.01503186400E+02  4.01503186400E+02  0.00000000000E+00  0.0000E+00  9.0
       -1   -1    0    0    0  500  0.00000000000E+00  0.00000000000E+00 -7.43771710930E+02  7.43771710930E+02  0.00000000000E+00  0.0000E+00  9.0
       13    1    1    2    0    0  3.94418672780E+01 -4.81491794250E+02 -4.38780649170E+02  6.52624300868E+02  1.05700000000E-01  0.0000E+00  9.0
      -13    1    1    2    0    0 -3.94418672780E+01  4.81491794250E+02  9.65121246400E+01  4.92650596467E+02  1.05700000000E-01  0.0000E+00  9.0
</event>
<event>
 4    1   7.6478753E-02   1.0000000E+03  -1.0000000E+00   9.4100000E-02
       -2   -1    0    0    0  500  0.00000000000E+00  0.00000000000E+00  9.81902865750E+02  9.81902865750E+02  0.00000000000E+00  0.0000E+00  9.0
        2   -1    0    0  500    0  0.00000000000E+00  0.00000000000E+00 -2.54668531850E+02  2.54668531850E+02  0.00000000000E+00  0.0000E+00  9.0
       13    1    1    2    0    0 -1.07154645010E+02  4.75969017630E+02  2.27998197670E+02  5.38527448701E+02  1.05700000000E-01  0.0000E+00  9.0
      -13    1    1    2    0    0  1.07154645010E+02 -4.75969017630E+02  4.99236136230E+02  6.98043948889E+02  1.05700000000E-01  0.0000E+00  9.0
</event>
<event>
 4    1   7.6478753E-02   1.0480000E+03  -1.0000000E+00   9.3600000E-02
        2   -1    0    0  500    0  0.00000000000E+00  0.00000000000E+00  7.56593826840E+02  7.56593826840E+02  0.00000000000E+00  0.0000E+00  9.0
       -2   -1    0    0    0  500  0.00000000000E+00  0.00000000000E+00 -3.62661621750E+02  3.62661621750E+02  0.00000000000E+00  0.0000E+00  9.0
       13    1    1    2    0    0  1.93148088230E+02  4.53376162690E+02  3.86675428520E+02  6.26397658901E+02  1.05700000000E-01  0.0000E+00  9.0
      -13    1    1    2    0    0 -1.93148088230E+02 -4.53376162690E+02  7.25677656670E+00  4.92857789693E+02  1.05700000000E-01  0.0000E+00  9.0
</event>
<event>
 4    1   7.6478753E-02   9.9790000E+02  -1.0000000E+00   9.4120000E-02
       -1   -1    0    0    0  500  0.00000000000E+00  0.00000000000E+00  3.73218389940E+02  3.73218389940E+02  0.00000000000E+00  0.0000E+00  9.0
        1   -1    0    0  500    0  0.00000000000E+00  0.00000000000E+00 -6.67040234710E+02  6.67040234710E+02  0.00000000000E+00  0.0000E+00  9.0
       13    1    1    2    0    0 -1.12085621500E+02  4.56306496950E+02  2.80613805960E+01  4.70708251425E+02  1.05700000000E-01  0.0000E+00  9.0
      -13    1    1    2    0    0  1.12085621500E+02 -4.56306496950E+02 -3.21883225370E+02  5.69550373236E+02  1.05700000000E-01  0.0000E+00  9.0
</event>
<event>
 4    1   7.6478753E-02   9.7760000E+02  -1.0000000E+00   9.4340000E-02
       -1   -1    0    0    0  500  0.00000000000E+00  0.00000000000E+00  1.24368559110E+02  1.24368559110E+02  0.00000000000E+00  0.0000E+00  9.0
        1   -1    0    0  500    0  0.00000000000E+00  0.00000000000E+00 -1.92109705820E+03  1.92109705820E+03  0.00000000000E+00  0.0000E+00  9.0
       13    1    1    2    0    0  2.88165071690E+02 -3.90386318800E+02 -1.02185618810E+03  1.13120761436E+03  1.05700000000E-01  0.0000E+00  9.0
      -13    1    1    2    0    0 -2.88165071690E+02  3.90386318800E+02 -7.74872310980E+02  9.14258002942E+02  1.05700000000E-01  0.0000E+00  9.0
</event>
<event>
 4    1   7.6478753E-02   9.5990000E+02  -1.0000000E+00   9.4540000E-02
        1   -1    0    0  500    0  0.00000000000E+00  0.00000000000E+00  1.47860275790E+03  1.47860275790E+03  0.00000000000E+00  0.0000E+00  9.0
       -1   -1    0    0    0  500  0.00000000000E+00  0.00000000000E+00 -1.55789718480E+02  1.55789718480E+02  0.00000000000E+00  0.0000E+00  9.0
       13    1    1    2    0    0  1.35309243720E+02  2.84723183370E+02  1.27761229490E+03  1.31592897598E+03  1.05700000000E-01  0.0000E+00  9.0
      -13    1    1    2    0    0 -1.35309243720E+02 -2.84723183370E+02  4.52007444880E+01  3.18463500356E+02  1.05700000000E-01  0.0000E+00  9.0
</event>
<event>
 4    1   7.6478753E-02   9.9060000E+02  -1.0000000E+00   9.4200000E-02
        1   -1    0    0  500    0  0.00000000000E+00  0.00000000000E+00  5.01417065520E+02  5.01417065520E+02  0.00000000000E+00  0.0000E+00  9.0
       -1   -1    0    0    0  500  0.00000000000E+00  0.00000000000E+00 -4.89285076280E+02  4.89285076280E+02  0.00000000000E+00  0.0000E+00  9.0
       13    1    1    2    0    0 -4.67097917100E+02  8.40483262700E+01 -1.35688384610E+02  4.93615168120E+02  1.05700000000E-01  0.0000E+00  9.0
      -13    1    1    2    0    0  4.67097917100E+02 -8.40483262700E+01  1.47820373850E+02  4.97086973683E+02  1.05700000000E-01  0.0000E+00  9.0
</event>
<event>
 4    1   7.6478753E-02   9.9780000E+02  -1.0000000E+00   9.4120000E-02
       -1   -1    0    0    0  500  0.00000000000E+00  0.00000000000E+00  6.70401296140E+02  6.70401296140E+02  0.00000000000E+00  0.0000E+00  9.0
        1   -1    0    0  500    0  0.00000000000E+00  0.00000000000E+00 -3.71301605580E+02  3.71301605580E+02  0.00000000000E+00  0.0000E+00  9.0
       13    1    1    2    0    0  4.40737314080E+02  1.21536491310E+02  3.58081783360E+02  5.80726332698E+02  1.05700000000E-01  0.0000E+00  9.0
      -13    1    1    2    0    0 -4.40737314080E+02 -1.21536491310E+02 -5.89820928090E+01  4.60976569022E+02  1.05700000000E-01  0.0000E+00  9.0
</event>
<event>
 4    1   7.6478753E-02   9.9850000E+02  -1.0000000E+00   9.4110000E-02
        1   -1    0    0  500    0  0.00000000000E+00  0.00000000000E+00  1.78945482150E+02  1.78945482150E+02  0.00000000000E+00  0.0000E+00  9.0
       -1   -1    0    0    0  500  0.00000000000E+00  0.00000000000E+00 -1.39297463640E+03  1.39297463640E+03  0.00000000000E+00  0.0000E+00  9.0
       13    1    1    2    0    0  4.31688628200E+01 -4.61192779810E+02 -9.00278994000E+02  1.01245474421E+03  1.05700000000E-01  0.0000E+00  9.0
      -13    1    1    2    0    0 -4.31688628200E+01  4.61192779810E+02 -3.13750160290E+02  5.59465374371E+02  1.05700000000E-01  0.0000E+00  9.0
</event>
<event>
 4    1   7.6478753E-02   9.9430000E+02  -1.0000000E+00   9.4160000E-02
        1   -1    0    0  500    0  0.00000000000E+00  0.00000000000E+00  1.83946455520E+03  1.83946455520E+03  0.00000000000E+00  0.0000E+00  9.0
       -1   -1    0    0    0  500  0.00000000000E+00  0.00000000000E+00 -1.34366945010E+02  1.34366945010E+02  0.00000000000E+00  0.0000E+00  9.0
       13    1    1    2    0    0 -7.88531425670E+01 -1.80881465870E+01 -1.21212255080E+02  1.45730645692E+02  1.05700000000E-01  0.0000E+00  9.0
      -13    1    1    2    0    0  7.88531425670E+01  1.80881465870E+01  1.82630986530E+03  1.82810085455E+03  1.05700000000E-01  0.0000E+00  9.0
</event>
<event>
 4    1   7.6478753E-02   1.0080000E+03  -1.0000000E+00   9.4020000E-02
        3   -1    0    0  500    0  0.00000000000E+00  0.00000000000E+00  7.57815887960E+02  7.57815914352E+02  2.00000000000E-01  0.0000E+00  9.0
       -3   -1    0    0    0  500  0.00000000000E+00  0.00000000000E+00 -3.34961045080E+02  3.34961104788E+02  2.00000000000E-01  0.0000E+00  9.0
       13    1    1    2    0    0  5.48661456350E+01 -2.04993340950E+02 -2.84130342490E+02  3.54630267274E+02  1.05700000000E-01  0.0000E+00  9.0
      -13    1    1    2    0    0 -5.48661456350E+01  2.04993340950E+02  7.06985185370E+02  7.38146751856E+02  1.05700000000E-01  0.0000E+00  9.0
</event>
<event>
 4    1   7.6478753E-02   1.0040000E+03  -1.0000000E+00   9.4060000E-02
       -1   -1    0    0    0  500  0.00000000000E+00  0.00000000000E+00  4.97106999270E+02  4.97106999270E+02  0.00000000000E+00  0.0000E+00  9.0
        1   -1    0    0  500    0  0.00000000000E+00  0.00000000000E+00 -5.06526696310E+02  5.06526696310E+02  0.00000000000E+00  0.0000E+00  9.0
       13    1    1    2    0    0 -3.06041176650E+01 -4.93751242580E+02  7.93834106870E+01  5.01027582706E+02  1.05700000000E-01  0.0000E+00  9.0
      -13    1    1    2    0    0  3.06041176650E+01  4.93751242580E+02 -8.88031077270E+01  5.02606112858E+02  1.05700000000E-01  0.0000E+00  9.0
</event>
<event>
 4    1   7.6478753E-02   1.0050000E+03  -1.0000000E+00   9.4040000E-02
        1   -1    0    0  500    0  0.00000000000E+00  0.00000000000E+00  1.07056332240E+03  1.07056332240E+03  0.00000000000E+00  0.0000E+00  9.0
       -1   -1    0    0    0  500  0.00000000000E+00  0.00000000000E+00 -2.36062391970E+02  2.36062391970E+02  0.00000000000E+00  0.0000E+00  9.0
       13    1    1    2    0    0  2.35529371660E+02 -1.67843512920E+02  9.51618278110E+02  9.94596847044E+02  1.05700000000E-01  0.0000E+00  9.0
      -13    1    1    2    0    0 -2.35529371660E+02  1.67843512920E+02 -1.17117347690E+02  3.12028867329E+02  1.05700000000E-01  0.0000E+00  9.0
</event>
<event>
 4    1   7.6478753E-02   1.0020000E+03  -1.0000000E+00   9.4070000E-02
        2   -1    0    0  500    0  0.00000000000E+00  0.00000000000E+00  3.30061591580E+03  3.30061591580E+03  0.00000000000E+00  0.0000E+00  9.0
       -2   -1    0    0    0  500  0.00000000000E+00  0.00000000000E+00 -7.61083544070E+01  7.61083544070E+01  0.00000000000E+00  0.0000E+00  9.0
       13    1    1    2    0    0  3.90089858830E+02 -4.07718891050E+01  2.66341411770E+03  2.69213803852E+03  1.05700000000E-01  0.0000E+00  9.0
      -13    1    1    2    0    0 -3.90089858830E+02  4.07718891050E+01  5.61093443760E+02  6.84586231753E+02  1.05700000000E-01  0.0000E+00  9.0
</event>
<event>
 4    1   7.6478753E-02   1.0000000E+03  -1.0000000E+00   9.4100000E-02
        2   -1    0    0  500    0  0.00000000000E+00  0.00000000000E+00  2.80438446620E+02  2.80438446620E+02  0.00000000000E+00  0.0000E+00  9.0
       -2   -1    0    0    0  500  0.00000000000E+00  0.00000000000E+00 -8.91601262990E+02  8.91601262990E+02  0.00000000000E+00  0.0000E+00  9.0
       13    1    1    2    0    0 -1.67392371920E+02 -8.22788401920E+01  2.38143261770E+02  3.02493368554E+02  1.05700000000E-01  0.0000E+00  9.0
      -13    1    1    2    0    0  1.67392371920E+02  8.22788401920E+01 -8.49306078130E+02  8.69546341055E+02  1.05700000000E-01  0.0000E+00  9.0
</event>
<event>
 4    1   7.6478753E-02   9.9860000E+02  -1.0000000E+00   9.4110000E-02
        2   -1    0    0  500    0  0.00000000000E+00  0.00000000000E+00  1.99179863600E+03  1.99179863600E+03  0.00000000000E+00  0.0000E+00  9.0
       -2   -1    0    0    0  500  0.00000000000E+00  0.00000000000E+00 -1.25174785480E+02  1.25174785480E+02  0.00000000000E+00  0.0000E+00  9.0
       13    1    1    2    0    0  1.80569754380E+02 -4.62736905500E+02  8.25385417670E+02  9.63323403008E+02  1.05700000000E-01  0.0000E+00  9.0
      -13    1    1    2    0    0 -1.80569754380E+02  4.62736905500E+02  1.04123843280E+03  1.15365001843E+03  1.05700000000E-01  0.0000E+00  9.0
</event>
<event>
 4    1   7.6478753E-02   9.9310000E+02  -1.0000000E+00   9.4170000E-02
       -1   -1    0    0    0  500  0.00000000000E+00  0.00000000000E+00  1.96563113130E+02  1.96563113130E+02  0.00000000000E+00  0.0000E+00  9.0
        1   -1    0    0  500    0  0.00000000000E+00  0.00000000000E+00 -1.25440573470E+03  1.25440573470E+03  0.00000000000E+00  0.0000E+00  9.0
       13    1    1    2    0    0 -7.56153066400E+01 -7.51946775260E+01 -1.23747840680E+03  1.24206470548E+03  1.05700000000E-01  0.0000E+00  9.0
      -13    1    1    2    0    0  7.56153066400E+01  7.51946775260E+01  1.79635785300E+02  2.08904142274E+02  1.05700000000E-01  0.0000E+00  9.0
</event>
<event>
 4    1   7.6478753E-02   9.0640000E+02  -1.0000000E+00   9.5170000E-02
       -1   -1    0    0    0  500  0.00000000000E+00  0.00000000000E+00  1.85791715320E+02  1.85791715320E+02  0.00000000000E+00  0.0000E+00  9.0
        1   -1    0    0  500    0  0.00000000000E+00  0.00000000000E+00 -1.10541725370E+03  1.10541725370E+03  0.00000000000E+00  0.0000E+00  9.0
       13    1    1    2    0    0  2.78387100760E+02  1.90733147330E+02 -2.88913780690E+01  3.38693422226E+02  1.05700000000E-01  0.0000E+00  9.0
      -13    1    1    2    0    0 -2.78387100760E+02 -1.90733147330E+02 -8.90734160270E+02  9.52515546752E+02  1.05700000000E-01  0.0000E+00  9.0
</event>
<event>
 4    1   7.6478753E-02   1.0010000E+03  -1.0000000E+00   9.4080000E-02
       -1   -1    0    0    0  500  0.00000000000E+00  0.00000000000E+00  1.16194130920E+02  1.16194130920E+02  0.00000000000E+00  0.0000E+00  9.0
        1   -1    0    0  500    0  0.00000000000E+00  0.00000000000E+00 -2.15744050330E+03  2.15744050330E+03  0.00000000000E+00  0.0000E+00  9.0
       13    1    1    2    0    0 -1.34413770260E+01  2.09689585380E+02  1.12405303940E+01  2.10420420894E+02  1.05700000000E-01  0.0000E+00  9.0
      -13    1    1    2    0    0  1.34413770260E+01 -2.09689585380E+02 -2.05248690280E+03  2.06321421335E+03  1.05700000000E-01  0.0000E+00  9.0
</event>
<event>
 4    1   7.6478753E-02   9.9080000E+02  -1.0000000E+00   9.4200000E-02
       -1   -1    0    0    0  500  0.00000000000E+00  0.00000000000E+00  2.52359377440E+02  2.52359377440E+02  0.00000000000E+00  0.0000E+00  9.0
        1   -1    0    0  500    0  0.00000000000E+00  0.00000000000E+00 -9.72528021320E+02  9.72528021320E+02  0.00000000000E+00  0.0000E+00  9.0
       13    1    1    2    0    0 -3.14279802110E+02 -3.82621936730E+02 -3.79833904820E+02  6.24055403714E+02  1.05700000000E-01  0.0000E+00  9.0
      -13    1    1    2    0    0  3.14279802110E+02  3.82621936730E+02 -3.40334739060E+02  6.00831995041E+02  1.05700000000E-01  0.0000E+00  9.0
</event>
<event>
 4    1   7.6478753E-02   1.0010000E+03  -1.0000000E+00   9.4090000E-02
       -1   -1    0    0    0  500  0.00000000000E+00  0.00000000000E+00  8.17164144710E+02  8.17164144710E+02  0.00000000000E+00  0.0000E+00  9.0
        1   -1    0    0  500    0  0.00000000000E+00  0.00000000000E+00 -3.06398288080E+02  3.06398288080E+02  0.00000000000E+00  0.0000E+00  9.0
       13    1    1    2    0    0  2.91826659760E+02 -3.10897924390E+02 -3.85826327740E+01  4.28145944114E+02  1.05700000000E-01  0.0000E+00  9.0
      -13    1    1    2    0    0 -2.91826659760E+02  3.10897924390E+02  5.49348489400E+02  6.95416488671E+02  1.05700000000E-01  0.0000E+00  9.0
</event>
<event>
 4    1   7.6478753E-02   9.9340000E+02  -1.0000000E+00   9.4170000E-02
       -1   -1    0    0    0  500  0.00000000000E+00  0.00000000000E+00  1.76321733270E+02  1.76321733270E+02  0.00000000000E+00  0.0000E+00  9.0
        1   -1    0    0  500    0  0.00000000000E+00  0.00000000000E+00 -1.39912635850E+03  1.39912635850E+03  0.00000000000E+00  0.0000E+00  9.0
       13    1    1    2    0    0 -4.78030486470E+02 -1.23564586990E+02 -6.97029859070E+02  8.54184985094E+02  1.05700000000E-01  0.0000E+00  9.0
      -13    1    1    2    0    0  4.78030486470E+02  1.23564586990E+02 -5.25774766160E+02  7.21263106679E+02  1.05700000000E-01  0.0000E+00  9.0
</event>
<event>
 4    1   7.6478753E-02   1.0040000E+03  -1.0000000E+00   9.4050000E-02
        1   -1    0    0  500    0  0.00000000000E+00  0.00000000000E+00  3.18323940430E+02  3.18323940430E+02  0.00000000000E+00  0.0000E+00  9.0
       -1   -1    0    0    0  500  0.00000000000E+00  0.00000000000E+00 -7.92104648410E+02  7.92104648410E+02  0.00000000000E+00  0.0000E+00  9.0
       13    1    1    2    0    0  1.24462555040E+02  7.50404203640E+01 -7.68341237780E+02  7.81965639361E+02  1.05700000000E-01  0.0000E+00  9.0
      -13    1    1    2    0    0 -1.24462555040E+02 -7.50404203640E+01  2.94560529800E+02  3.28462949484E+02  1.05700000000E-01  0.0000E+00  9.0
</event>
<event>
 4    1   7.6478753E-02   1.0030000E+03  -1.0000000E+00   9.4070000E-02
        1   -1    0    0  500    0  0.00000000000E+00  0.00000000000E+00  3.19411878410E+02  3.19411878410E+02  0.00000000000E+00  0.0000E+00  9.0
       -1   -1    0    0    0  500  0.00000000000E+00  0.00000000000E+00 -7.87216248170E+02  7.87216248170E+02  0.00000000000E+00  0.0000E+00  9.0
       13    1    1    2    0    0 -4.86402000890E+02 -1.03964718360E+02 -1.63674073610E+02  5.23626567964E+02  1.05700000000E-01  0.0000E+00  9.0
      -13    1    1    2    0    0  4.86402000890E+02  1.03964718360E+02 -3.04130296150E+02  5.83001558610E+02  1.05700000000E-01  0.0000E+00  9.0
</event>
<event>
 4    1   7.6478753E-02   9.9920000E+02  -1.0000000E+00   9.4110000E-02
       -1   -1    0    0    0  500  0.00000000000E+00  0.00000000000E+00  7.65787399260E+02  7.65787399260E+02  0.00000000000E+00  0.0000E+00  9.0
        1   -1    0    0  500    0  0.00000000000E+00  0.00000000000E+00 -3.25928459990E+02  3.25928459990E+02  0.00000000000E+00  0.0000E+00  9.0
       13    1    1    2    0    0 -1.89687107700E+02 -3.18013115940E+02  5.86366076520E+02  6.93497460416E+02  1.05700000000E-01  0.0000E+00  9.0
      -13    1    1    2    0    0  1.89687107700E+02  3.18013115940E+02 -1.46507137240E+02  3.98218398837E+02  1.05700000000E-01  0.0000E+00  9.0
</event>
<event>
 4    1   7.6478753E-02   1.0030000E+03  -1.0000000E+00   9.4070000E-02
       -1   -1    0    0    0  500  0.00000000000E+00  0.00000000000E+00  3.51991024950E+02  3.51991024950E+02  0.00000000000E+00  0.0000E+00  9.0
        1   -1    0    0  500    0  0.00000000000E+00  0.00000000000E+00 -7.13923621420E+02  7.13923621420E+02  0.00000000000E+00  0.0000E+00  9.0
       13    1    1    2    0    0  4.32087121660E+02 -5.75599467050E+01 -4.44155567220E+02  6.22323555101E+02  1.05700000000E-01  0.0000E+00  9.0
      -13    1    1    2    0    0 -4.32087121660E+02  5.75599467050E+01  8.22229707520E+01  4.43591091278E+02  1.05700000000E-01  0.0000E+00  9.0
</event>
<event>
 4    1   7.6478753E-02   9.9610000E+02  -1.0000000E+00   9.4140000E-02
       -2   -1    0    0    0  500  0.00000000000E+00  0.00000000000E+00  2.40505758240E+02  2.40505758240E+02  0.00000000000E+00  0.0000E+00  9.0
        2   -1    0    0  500    0  0.00000000000E+00  0.00000000000E+00 -1.03140360330E+03  1.03140360330E+03  0.00000000000E+00  0.0000E+00  9.0
       13    1    1    2    0    0 -2.93068700940E+02 -6.45450876900E+01 -9.03002620860E+02  9.51561388597E+02  1.05700000000E-01  0.0000E+00  9.0
      -13    1    1    2    0    0  2.93068700940E+02  6.45450876900E+01  1.12104775830E+02  3.20347972917E+02  1.05700000000E-01  0.0000E+00  9.0
</event>
<event>
 4    1   7.6478753E-02   1.0020000E+03  -1.0000000E+00   9.4080000E-02
       -1   -1    0    0    0  500  0.00000000000E+00  0.00000000000E+00  1.56803889210E+02  1.56803889210E+02  0.00000000000E+00  0.0000E+00  9.0
        1   -1    0    0  500    0  0.00000000000E+00  0.00000000000E+00 -1.60053917260E+03  1.60053917260E+03  0.00000000000E+00  0.0000E+00  9.0
       13    1    1    2    0    0  4.15206946820E+02 -2.51405422530E+02 -5.04426622010E+02  7.00034087263E+02  1.05700000000E-01  0.0000E+00  9.0
      -13    1    1    2    0    0 -4.15206946820E+02  2.51405422530E+02 -9.39308661370E+02  1.05730897455E+03  1.05700000000E-01  0.0000E+00  9.0
</event>
<event>
 4    1   7.6478753E-02   9.9280000E+02  -1.0000000E+00   9.4180000E-02
       -1   -1    0    0    0  500  0.00000000000E+00  0.00000000000E+00  6.06479571470E+01  6.06479571470E+01  0.00000000000E+00  0.0000E+00  9.0
        1   -1    0    0  500    0  0.00000000000E+00  0.00000000000E+00 -4.06307832380E+03  4.06307832380E+03  0.00000000000E+00  0.0000E+00  9.0
       13    1    1    2    0    0 -1.98370747170E+02  1.93435536580E+02 -2.90412328920E+02  4.01382102374E+02  1.05700000000E-01  0.0000E+00  9.0
      -13    1    1    2    0    0  1.98370747170E+02 -1.93435536580E+02 -3.71201803780E+03  3.72234417864E+03  1.05700000000E-01  0.0000E+00  9.0
</event>
<event>
 4    1   7.6478753E-02   1.0030000E+03  -1.0000000E+00   9.4060000E-02
       -2   -1    0    0    0  500  0.00000000000E+00  0.00000000000E+00  3.23206533800E+02  3.23206533800E+02  0.00000000000E+00  0.0000E+00  9.0
        2   -1    0    0  500    0  0.00000000000E+00  0.00000000000E+00 -7.78280867610E+02  7.78280867610E+02  0.00000000000E+00  0.0000E+00  9.0
       13    1    1    2    0    0 -1.64005659540E+02  3.47390081820E+02 -5.81608336890E+02  6.97026537530E+02  1.05700000000E-01  0.0000E+00  9.0
      -13    1    1    2    0    0  1.64005659540E+02 -3.47390081820E+02  1.26534003080E+02  4.04460863887E+02  1.05700000000E-01  0.0000E+00  9.0
</event>
<event>
 4    1   7.6478753E-02   9.9410000E+02  -1.0000000E+00   9.4160000E-02
        1   -1    0    0  500    0  0.00000000000E+00  0.00000000000E+00  7.54608927460E+02  7.54608927460E+02  0.00000000000E+00  0.0000E+00  9.0
       -1   -1    0    0    0  500  0.00000000000E+00  0.00000000000E+00 -3.27366836250E+02  3.27366836250E+02  0.00000000000E+00  0.0000E+00  9.0
       13    1    1    2    0    0 -3.41644485760E+02 -3.36786471740E+02  7.21732026470E+01  4.85134068635E+02  1.05700000000E-01  0.0000E+00  9.0
      -13    1    1    2    0    0  3.41644485760E+02  3.36786471740E+02  3.55068888560E+02  5.96841695086E+02  1.05700000000E-01  0.0000E+00  9.0
</event>
<event>
 4    1   7.6478753E-02   1.0010000E+03  -1.0000000E+00   9.4090000E-02
       -2   -1    0    0    0  500  0.00000000000E+00  0.00000000000E+00  1.75091664710E+02  1.75091664710E+02  0.00000000000E+00  0.0000E+00  9.0
        2   -1    0    0  500    0  0.00000000000E+00  0.00000000000E+00 -1.42999563240E+03  1.42999563240E+03  0.00000000000E+00  0.0000E+00  9.0
       13    1    1    2    0    0 -8.34962390840E+01 -4.92511433420E+02 -6.73968868840E+02  8.38911903199E+02  1.05700000000E-01  0.0000E+00  9.0
      -13    1    1    2    0    0  8.34962390840E+01  4.92511433420E+02 -5.80935098890E+02  7.66175393944E+02  1.05700000000E-01  0.0000E+00  9.0
</event>
<event>
 4    1   7.6478753E-02   1.0040000E+03  -1.0000000E+00   9.4050000E-02
       -1   -1    0    0    0  500  0.00000000000E+00  0.00000000000E+00  3.23458654880E+02  3.23458654880E+02  0.00000000000E+00  0.0000E+00  9.0
        1   -1    0    0  500    0  0.00000000000E+00  0.00000000000E+00 -7.79323634460E+02  7.79323634460E+02  0.00000000000E+00  0.0000E+00  9.0
       13    1    1    2    0    0 -4.07770361310E+02 -2.26802706840E+02 -2.43521081450E+01  4.67235670445E+02  1.05700000000E-01  0.0000E+00  9.0
      -13    1    1    2    0    0  4.07770361310E+02  2.26802706840E+02 -4.31512871430E+02  6.35546618884E+02  1.05700000000E-01  0.0000E+00  9.0
</event>
<event>
 4    1   7.6478753E-02   1.0030000E+03  -1.0000000E+00   9.4060000E-02
        1   -1    0    0  500    0  0.00000000000E+00  0.00000000000E+00  6.34956787750E+02  6.34956787750E+02  0.00000000000E+00  0.0000E+00  9.0
       -1   -1    0    0    0  500  0.00000000000E+00  0.00000000000E+00 -3.96222951880E+02  3.96222951880E+02  0.00000000000E+00  0.0000E+00  9.0
       13    1    1    2    0    0  2.89947260950E+02 -3.35269869620E+02 -1.21942515970E+02  4.59723055742E+02  1.05700000000E-01  0.0000E+00  9.0
      -13    1    1    2    0    0 -2.89947260950E+02  3.35269869620E+02  3.60676351840E+02  5.71456683885E+02  1.05700000000E-01  0.0000E+00  9.0
</event>
<event>
 4    1   7.6478753E-02   1.0000000E+03  -1.0000000E+00   9.4090000E-02
       -1   -1    0    0    0  500  0.00000000000E+00  0.00000000000E+00  2.34222094520E+02  2.34222094520E+02  0.00000000000E+00  0.0000E+00  9.0
        1   -1    0    0  500    0  0.00000000000E+00  0.00000000000E+00 -1.06794299230E+03  1.06794299230E+03  0.00000000000E+00  0.0000E+00  9.0
       13    1    1    2    0    0 -3.41150013620E+01  4.98524679880E+02 -4.44326619970E+02  6.68667964055E+02  1.05700000000E-01  0.0000E+00  9.0
      -13    1    1    2    0    0  3.41150013620E+01 -4.98524679880E+02 -3.89394277780E+02  6.33497122730E+02  1.05700000000E-01  0.0000E+00  9.0
</event>
<event>
 4    1   7.6478753E-02   1.0010000E+03  -1.0000000E+00   9.4090000E-02
        1   -1    0    0  500    0  0.00000000000E+00  0.00000000000E+00  1.52450479990E+03  1.52450479990E+03  0.00000000000E+00  0.0000E+00  9.0
       -1   -1    0    0    0  500  0.00000000000E+00  0.00000000000E+00 -1.64325612430E+02  1.64325612430E+02  0.00000000000E+00  0.0000E+00  9.0
       13    1    1    2    0    0 -4.25657116770E+01  2.83707616270E+02 -1.18516406180E+01  2.87127713567E+02  1.05700000000E-01  0.0000E+00  9.0
      -13    1    1    2    0    0  4.25657116770E+01 -2.83707616270E+02  1.37203082810E+03  1.40170269878E+03  1.05700000000E-01  0.0000E+00  9.0
</event>
<event>
 4    1   7.6478753E-02   8.4700000E+02  -1.0000000E+00   9.5930000E-02
        1   -1    0    0  500    0  0.00000000000E+00  0.00000000000E+00  5.19281341280E+02  5.19281341280E+02  0.00000000000E+00  0.0000E+00  9.0
       -1   -1    0    0    0  500  0.00000000000E+00  0.00000000000E+00 -3.45417916110E+02  3.45417916110E+02  0.00000000000E+00  0.0000E+00  9.0
       13    1    1    2    0    0 -3.10794681190E+02  2.42807206220E+02  2.44488013180E+02  4.64029172585E+02  1.05700000000E-01  0.0000E+00  9.0
      -13    1    1    2    0    0  3.10794681190E+02 -2.42807206220E+02 -7.06245880050E+01  4.00670084798E+02  1.05700000000E-01  0.0000E+00  9.0
</event>
<event>
 4    1   7.6478753E-02   1.0030000E+03  -1.0000000E+00   9.4060000E-02
        2   -1    0    0  500    0  0.00000000000E+00  0.00000000000E+00  3.20350827950E+03  3.20350827950E+03  0.00000000000E+00  0.0000E+00  9.0
       -2   -1    0    0    0  500  0.00000000000E+00  0.00000000000E+00 -7.85671066980E+01  7.85671066980E+01  0.00000000000E+00  0.0000E+00  9.0
       13    1    1    2    0    0  1.43032413980E+02  4.75889722930E+02  1.78817359220E+03  1.85593483368E+03  1.05700000000E-01  0.0000E+00  9.0
      -13    1    1    2    0    0 -1.43032413980E+02 -4.75889722930E+02  1.33676758070E+03  1.42614055262E+03  1.05700000000E-01  0.0000E+00  9.0
</event>
<event>
 4    1   7.6478753E-02   1.0010000E+03  -1.0000000E+00   9.4090000E-02
       -1   -1    0    0    0  500  0.00000000000E+00  0.00000000000E+00  1.08636853500E+02  1.08636853500E+02  0.00000000000E+00  0.0000E+00  9.0
        1   -1    0    0  500    0  0.00000000000E+00  0.00000000000E+00 -2.30464758810E+03  2.30464758810E+03  0.00000000000E+00  0.0000E+00  9.0
       13    1    1    2    0    0 -5.78245128670E+01 -4.01351608640E+01  9.66381928860E+01  1.19555246320E+02  1.05700000000E-01  0.0000E+00  9.0
      -13    1    1    2    0    0  5.78245128670E+01  4.01351608640E+01 -2.29264892740E+03  2.29372919520E+03  1.05700000000E-01  0.0000E+00  9.0
</event>
<event>
 4    1   7.6478753E-02   9.9540000E+02  -1.0000000E+00   9.4150000E-02
        1   -1    0    0  500    0  0.00000000000E+00  0.00000000000E+00  1.23823873050E+03  1.23823873050E+03  0.00000000000E+00  0.0000E+00  9.0
       -1   -1    0    0    0  500  0.00000000000E+00  0.00000000000E+00 -2.00040435190E+02  2.00040435190E+02  0.00000000000E+00  0.0000E+00  9.0
       13    1    1    2    0    0  1.58082362590E+02  8.95873615260E+01 -1.50399641570E+02  2.35872830280E+02  1.05700000000E-01  0.0000E+00  9.0
      -13    1    1    2    0    0 -1.58082362590E+02 -8.95873615260E+01  1.18859793690E+03  1.20240633543E+03  1.05700000000E-01  0.0000E+00  9.0
</event>
<event>
 4    1   7.6478753E-02   9.9730000E+02  -1.0000000E+00   9.4130000E-02
        1   -1    0    0  500    0  0.00000000000E+00  0.00000000000E+00  6.92177943280E+02  6.92177943280E+02  0.00000000000E+00  0.0000E+00  9.0
       -1   -1    0    0    0  500  0.00000000000E+00  0.00000000000E+00 -3.59203869510E+02  3.59203869510E+02  0.00000000000E+00  0.0000E+00  9.0
       13    1    1    2    0    0  3.38343145300E+02 -2.96821522440E+02 -5.97606855290E+01  4.54037939893E+02  1.05700000000E-01  0.0000E+00  9.0
      -13    1    1    2    0    0 -3.38343145300E+02  2.96821522440E+02  3.92734759290E+02  5.97343872892E+02  1.05700000000E-01  0.0000E+00  9.0
</event>
<event>
 4    1   7.6478753E-02   1.0030000E+03  -1.0000000E+00   9.4070000E-02
        1   -1    0    0  500    0  0.00000000000E+00  0.00000000000E+00  1.99410809710E+02  1.99410809710E+02  0.00000000000E+00  0.0000E+00  9.0
       -1   -1    0    0    0  500  0.00000000000E+00  0.00000000000E+00 -1.26034865120E+03  1.26034865120E+03  0.00000000000E+00  0.0000E+00  9.0
       13    1    1    2    0    0 -1.53080711520E+02  1.09734477990E+02 -1.20687797940E+03  1.22148672864E+03  1.05700000000E-01  0.0000E+00  9.0
      -13    1    1    2    0    0  1.53080711520E+02 -1.09734477990E+02  1.45940137940E+02  2.38272732250E+02  1.05700000000E-01  0.0000E+00  9.0
</event>
<event>
 4    1   7.6478753E-02   1.0040000E+03  -1.0000000E+00   9.4050000E-02
        1   -1    0    0  500    0  0.00000000000E+00  0.00000000000E+00  4.91842534880E+02  4.91842534880E+02  0.00000000000E+00  0.0000E+00  9.0
       -1   -1    0    0    0  500  0.00000000000E+00  0.00000000000E+00 -5.12839330370E+02  5.12839330370E+02  0.00000000000E+00  0.0000E+00  9.0
       13    1    1    2    0    0 -4.06286984390E+02 -2.19194839020E+02  1.87334329540E+02  4.98206436464E+02  1.05700000000E-01  0.0000E+00  9.0
      -13    1    1    2    0    0  4.06286984390E+02  2.19194839020E+02 -2.08331125030E+02  5.06475428788E+02  1.05700000000E-01  0.0000E+00  9.0
</event>
<event>
 4    1   7.6478753E-02   9.9940000E+02  -1.0000000E+00   9.4100000E-02
       -1   -1    0    0    0  500  0.00000000000E+00  0.00000000000E+00  3.55832942260E+02  3.55832942260E+02  0.00000000000E+00  0.0000E+00  9.0
        1   -1    0    0  500    0  0.00000000000E+00  0.00000000000E+00 -7.01710264040E+02  7.01710264040E+02  0.00000000000E+00  0.0000E+00  9.0
       13    1    1    2    0    0  2.83921305070E+01 -2.41452479400E+02  2.89029307130E+02  3.77681564861E+02  1.05700000000E-01  0.0000E+00  9.0
      -13    1    1    2    0    0 -2.83921305070E+01  2.41452479400E+02 -6.34906628910E+02  6.79861641431E+02  1.05700000000E-01  0.0000E+00  9.0
</event>
<event>
 4    1   7.6478753E-02   1.0010000E+03  -1.0000000E+00   9.4090000E-02
        1   -1    0    0  500    0  0.00000000000E+00  0.00000000000E+00  1.36600877680E+03  1.36600877680E+03  0.00000000000E+00  0.0000E+00  9.0
       -1   -1    0    0    0  500  0.00000000000E+00  0.00000000000E+00 -1.83345846860E+02  1.83345846860E+02  0.00000000000E+00  0.0000E+00  9.0
       13    1    1    2    0    0 -3.93993528120E+01  3.33149628960E+02  1.64767851990E+01  3.35875691144E+02  1.05700000000E-01  0.0000E+00  9.0
      -13    1    1    2    0    0  3.93993528120E+01 -3.33149628960E+02  1.16618614470E+03  1.21347893247E+03  1.05700000000E-01  0.0000E+00  9.0
</event>
<event>
 4    1   7.6478753E-02   9.9710000E+02  -1.0000000E+00   9.4130000E-02
        1   -1    0    0  500    0  0.00000000000E+00  0.00000000000E+00  8.56029357550E+02  8.56029357550E+02  0.00000000000E+00  0.0000E+00  9.0
       -1   -1    0    0    0  500  0.00000000000E+00  0.00000000000E+00 -2.90346984480E+02  2.90346984480E+02  0.00000000000E+00  0.0000E+00  9.0
       13    1    1    2    0    0 -4.55631352040E+02 -1.31768626090E+02  1.06281982050E+02  4.86064574583E+02  1.05700000000E-01  0.0000E+00  9.0
      -13    1    1    2    0    0  4.55631352040E+02  1.31768626090E+02  4.59400391020E+02  6.60311767444E+02  1.05700000000E-01  0.0000E+00  9.0
</event>
<event>
 4    1   7.6478753E-02   9.9590000E+02  -1.0000000E+00   9.4140000E-02
       -1   -1    0    0    0  500  0.00000000000E+00  0.00000000000E+00  3.36436724850E+02  3.36436724850E+02  0.00000000000E+00  0.0000E+00  9.0
        1   -1    0    0  500    0  0.00000000000E+00  0.00000000000E+00 -7.37021477650E+02  7.37021477650E+02  0.00000000000E+00  0.0000E+00  9.0
       13    1    1    2    0    0  1.86823907560E+02 -7.10687113020E+01  2.91297014140E+02  3.53281609741E+02  1.05700000000E-01  0.0000E+00  9.0
      -13    1    1    2    0    0 -1.86823907560E+02  7.10687113020E+01 -6.91881766940E+02  7.20176592759E+02  1.05700000000E-01  0.0000E+00  9.0
</event>
<event>
 4    1   7.6478753E-02   1.0040000E+03  -1.0000000E+00   9.4050000E-02
        2   -1    0    0  500    0  0.00000000000E+00  0.00000000000E+00  1.65757156880E+03  1.65757156880E+03  0.00000000000E+00  0.0000E+00  9.0
       -2   -1    0    0    0  500  0.00000000000E+00  0.00000000000E+00 -1.52064403290E+02  1.52064403290E+02  0.00000000000E+00  0.0000E+00  9.0
       13    1    1    2    0    0 -6.53789871190E+01  3.65589561550E+02  1.36159812180E+03  1.41133964584E+03  1.05700000000E-01  0.0000E+00  9.0
      -13    1    1    2    0    0  6.53789871190E+01 -3.65589561550E+02  1.43909043730E+02  3.98296326258E+02  1.05700000000E-01  0.0000E+00  9.0
</event>
<event>
 4    1   7.6478753E-02   9.9780000E+02  -1.0000000E+00   9.4120000E-02
        2   -1    0    0  500    0  0.00000000000E+00  0.00000000000E+00  1.05256079620E+03  1.05256079620E+03  0.00000000000E+00  0.0000E+00  9.0
       -2   -1    0    0    0  500  0.00000000000E+00  0.00000000000E+00 -2.36486252640E+02  2.36486252640E+02  0.00000000000E+00  0.0000E+00  9.0
       13    1    1    2    0    0  3.52500728130E+00 -4.98880118620E+02  4.14144427250E+02  6.48389864376E+02  1.05700000000E-01  0.0000E+00  9.0
      -13    1    1    2    0    0 -3.52500728130E+00  4.98880118620E+02  4.01930116320E+02  6.40657184466E+02  1.05700000000E-01  0.0000E+00  9.0
</event>
<event>
 4    1   7.6478753E-02   9.9990000E+02  -1.0000000E+00   9.4100000E-02
        2   -1    0    0  500    0  0.00000000000E+00  0.00000000000E+00  1.58767262350E+02  1.58767262350E+02  0.00000000000E+00  0.0000E+00  9.0
       -2   -1    0    0    0  500  0.00000000000E+00  0.00000000000E+00 -1.57441291580E+03  1.57441291580E+03  0.00000000000E+00  0.0000E+00  9.0
       13    1    1    2    0    0  2.03373564620E+02  3.07565401410E+02 -1.22572781050E+02  3.88563226203E+02  1.05700000000E-01  0.0000E+00  9.0
      -13    1    1    2    0    0 -2.03373564620E+02 -3.07565401410E+02 -1.29307287240E+03  1.34461695194E+03  1.05700000000E-01  0.0000E+00  9.0
</event>
<event>
 4    1   7.6478753E-02   1.0030000E+03  -1.0000000E+00   9.4060000E-02
        2   -1    0    0  500    0  0.00000000000E+00  0.00000000000E+00  5.20105604580E+02  5.20105604580E+02  0.00000000000E+00  0.0000E+00  9.0
       -2   -1    0    0    0  500  0.00000000000E+00  0.00000000000E+00 -4.83817044050E+02  4.83817044050E+02  0.00000000000E+00  0.0000E+00  9.0
       13    1    1    2    0    0 -3.18265022460E+01 -4.99536563890E+02  5.11239898740E+01  5.03153434274E+02  1.05700000000E-01  0.0000E+00  9.0
      -13    1    1    2    0    0  3.18265022460E+01  4.99536563890E+02 -1.48354293430E+01  5.00769214354E+02  1.05700000000E-01  0.0000E+00  9.0
</event>
<event>
 4    1   7.6478753E-02   9.9340000E+02  -1.0000000E+00   9.4170000E-02
       -2   -1    0    0    0  500  0.00000000000E+00  0.00000000000E+00  7.84419193140E+01  7.84419193140E+01  0.00000000000E+00  0.0000E+00  9.0
        2   -1    0    0  500    0  0.00000000000E+00  0.00000000000E+00 -3.14509638070E+03  3.14509638070E+03  0.00000000000E+00  0.0000E+00  9.0
       13    1    1    2    0    0 -4.26603284970E+02  2.22921988290E+02 -1.13559815820E+03  1.23339683950E+03  1.05700000000E-01  0.0000E+00  9.0
      -13    1    1    2    0    0  4.26603284970E+02 -2.22921988290E+02 -1.93105630320E+03  1.99014146053E+03  1.05700000000E-01  0.0000E+00  9.0
</event>
<event>
 4    1   7.6478753E-02   1.0010000E+03  -1.0000000E+00   9.4090000E-02
       -1   -1    0    0    0  500  0.00000000000E+00  0.00000000000E+00  9.74605804220E+01  9.74605804220E+01  0.00000000000E+00  0.0000E+00  9.0
        1   -1    0    0  500    0  0.00000000000E+00  0.00000000000E+00 -2.56885461930E+03  2.56885461930E+03  0.00000000000E+00  0.0000E+00  9.0
       13    1    1    2    0    0 -4.37818202590E+02  8.56575665500E+01 -1.83940288090E+03  1.89272950171E+03  1.05700000000E-01  0.0000E+00  9.0
      -13    1    1    2    0    0  4.37818202590E+02 -8.56575665500E+01 -6.31991157970E+02  7.73585698001E+02  1.05700000000E-01  0.0000E+00  9.0
</event>
<event>
 4    1   7.6478753E-02   9.7430000E+02  -1.0000000E+00   9.4380000E-02
        2   -1    0    0  500    0  0.00000000000E+00  0.00000000000E+00  1.39591597100E+03  1.39591597100E+03  0.00000000000E+00  0.0000E+00  9.0
       -2   -1    0    0    0  500  0.00000000000E+00  0.00000000000E+00 -1.70004845700E+02  1.70004845700E+02  0.00000000000E+00  0.0000E+00  9.0
       13    1    1    2    0    0  3.26051590540E+02  1.07766904860E+02  5.76118058820E+01  3.48198904114E+02  1.05700000000E-01  0.0000E+00  9.0
      -13    1    1    2    0    0 -3.26051590540E+02 -1.07766904860E+02  1.16829931940E+03  1.21772191257E+03  1.05700000000E-01  0.0000E+00  9.0
</event>
<event>
 4    1   7.6478753E-02   1.0220000E+03  -1.0000000E+00   9.3860000E-02
        1   -1    0    0  500    0  0.00000000000E+00  0.00000000000E+00  5.03474080230E+02  5.03474080230E+02  0.00000000000E+00  0.0000E+00  9.0
       -1   -1    0    0    0  500  0.00000000000E+00  0.00000000000E+00 -5.19014739660E+02  5.19014739660E+02  0.00000000000E+00  0.0000E+00  9.0
       13    1    1    2    0    0 -3.89015089460E+02  2.80670272180E+02  1.68890717080E+02  5.08559364284E+02  1.05700000000E-01  0.0000E+00  9.0
      -13    1    1    2    0    0  3.89015089460E+02 -2.80670272180E+02 -1.84431376520E+02  5.13929455597E+02  1.05700000000E-01  0.0000E+00  9.0
</event>
<event>
 4    1   7.6478753E-02   9.8570000E+02  -1.0000000E+00   9.4250000E-02
        1   -1    0    0  500    0  0.00000000000E+00  0.00000000000E+00  5.97679301610E+02  5.97679301610E+02  0.00000000000E+00  0.0000E+00  9.0
       -1   -1    0    0    0  500  0.00000000000E+00  0.00000000000E+00 -4.06414313420E+02  4.06414313420E+02  0.00000000000E+00  0.0000E+00  9.0
       13    1    1    2    0    0  3.19911376930E+02  2.95549024920E+02  3.30614201150E+02  5.46807348520E+02  1.05700000000E-01  0.0000E+00  9.0
      -13    1    1    2    0    0 -3.19911376930E+02 -2.95549024920E+02 -1.39349212960E+02  4.57286266517E+02  1.05700000000E-01  0.0000E+00  9.0
</event>
<event>
 4    1   7.6478753E-02   9.9920000E+02  -1.0000000E+00   9.4110000E-02
        1   -1    0    0  500    0  0.00000000000E+00  0.00000000000E+00  1.24063517930E+03  1.24063517930E+03  0.00000000000E+00  0.0000E+00  9.0
       -1   -1    0    0    0  500  0.00000000000E+00  0.00000000000E+00 -2.01176716210E+02  2.01176716210E+02  0.00000000000E+00  0.0000E+00  9.0
       13    1    1    2    0    0 -3.64041397300E+02 -2.77357202660E+02  2.30646240170E+02  5.12494737624E+02  1.05700000000E-01  0.0000E+00  9.0
      -13    1    1    2    0    0  3.64041397300E+02  2.77357202660E+02  8.08812222950E+02  9.29317157908E+02  1.05700000000E-01  0.0000E+00  9.0
</event>
<event>
 4    1   7.6478753E-02   9.9800000E+02  -1.0000000E+00   9.4120000E-02
        3   -1    0    0  500    0  0.00000000000E+00  0.00000000000E+00  1.00971068260E+03  1.00971070241E+03  2.00000000000E-01  0.0000E+00  9.0
       -3   -1    0    0    0  500  0.00000000000E+00  0.00000000000E+00 -2.46623597060E+02  2.46623678155E+02  2.00000000000E-01  0.0000E+00  9.0
       13    1    1    2    0    0 -4.13344820710E+02 -2.61740623250E+02  5.05243025770E+02  7.03301230575E+02  1.05700000000E-01  0.0000E+00  9.0
      -13    1    1    2    0    0  4.13344820710E+02  2.61740623250E+02  2.57844059800E+02  5.53033150013E+02  1.05700000000E-01  0.0000E+00  9.0
</event>
<event>
 4    1   7.6478753E-02   9.9850000E+02  -1.0000000E+00   9.4110000E-02
       -1   -1    0    0    0  500  0.00000000000E+00  0.00000000000E+00  2.84697702710E+02  2.84697702710E+02  0.00000000000E+00  0.0000E+00  9.0
        1   -1    0    0  500    0  0.00000000000E+00  0.00000000000E+00 -8.75512672440E+02  8.75512672440E+02  0.00000000000E+00  0.0000E+00  9.0
       13    1    1    2    0    0  2.40281155090E+02  4.37507468090E+02 -2.83297797960E+02  5.73938560847E+02  1.05700000000E-01  0.0000E+00  9.0
      -13    1    1    2    0    0 -2.40281155090E+02 -4.37507468090E+02 -3.07517171770E+02  5.86271814291E+02  1.05700000000E-01  0.0000E+00  9.0
</event>
<event>
 4    1   7.6478753E-02   9.2130000E+02  -1.0000000E+00   9.4990000E-02
        1   -1    0    0  500    0  0.00000000000E+00  0.00000000000E+00  3.54432319850E+02  3.54432319850E+02  0.00000000000E+00  0.0000E+00  9.0
       -1   -1    0    0    0  500  0.00000000000E+00  0.00000000000E+00 -5.98696314960E+02  5.98696314960E+02  0.00000000000E+00  0.0000E+00  9.0
       13    1    1    2    0    0 -1.16157257130E+01  6.14601552810E+01 -5.94282663020E+02  5.97565201890E+02  1.05700000000E-01  0.0000E+00  9.0
      -13    1    1    2    0    0  1.16157257130E+01 -6.14601552810E+01  3.50018667910E+02  3.55563432919E+02  1.05700000000E-01  0.0000E+00  9.0
</event>
<event>
 4    1   7.6478753E-02   9.9380000E+02  -1.0000000E+00   9.4160000E-02
        1   -1    0    0  500    0  0.00000000000E+00  0.00000000000E+00  4.06030375020E+02  4.06030375020E+02  0.00000000000E+00  0.0000E+00  9.0
       -1   -1    0    0    0  500  0.00000000000E+00  0.00000000000E+00 -6.08097285260E+02  6.08097285260E+02  0.00000000000E+00  0.0000E+00  9.0
       13    1    1    2    0    0 -3.90486608500E+02 -2.78107803400E+02  3.23398584880E+01  4.80488937801E+02  1.05700000000E-01  0.0000E+00  9.0
      -13    1    1    2    0    0  3.90486608500E+02  2.78107803400E+02 -2.34406768730E+02  5.33638722479E+02  1.05700000000E-01  0.0000E+00  9.0
</event>
<event>
 4    1   7.6478753E-02   1.0020000E+03  -1.0000000E+00   9.4070000E-02
       -3   -1    0    0    0  500  0.00000000000E+00  0.00000000000E+00  8.33901144760E+02  8.33901168744E+02  2.00000000000E-01  0.0000E+00  9.0
        3   -1    0    0  500    0  0.00000000000E+00  0.00000000000E+00 -3.01228427640E+02  3.01228494035E+02  2.00000000000E-01  0.0000E+00  9.0
       13    1    1    2    0    0  1.44352100120E+02 -4.61060694380E+02  4.17337226790E+02  6.38423734481E+02  1.05700000000E-01  0.0000E+00  9.0
      -13    1    1    2    0    0 -1.44352100120E+02  4.61060694380E+02  1.15335490330E+02  4.96705928305E+02  1.05700000000E-01  0.0000E+00  9.0
</event>
<event>
 4    1   7.6478753E-02   9.9540000E+02  -1.0000000E+00   9.4150000E-02
       -1   -1    0    0    0  500  0.00000000000E+00  0.00000000000E+00  3.11923502330E+02  3.11923502330E+02  0.00000000000E+00  0.0000E+00  9.0
        1   -1    0    0  500    0  0.00000000000E+00  0.00000000000E+00 -7.94103028090E+02  7.94103028090E+02  0.00000000000E+00  0.0000E+00  9.0
       13    1    1    2    0    0 -3.03748263140E+02 -3.82274772070E+02 -3.48258980810E+02  5.99734389217E+02  1.05700000000E-01  0.0000E+00  9.0
      -13    1    1    2    0    0  3.03748263140E+02  3.82274772070E+02 -1.33920544960E+02  5.06292141216E+02  1.05700000000E-01  0.0000E+00  9.0
</event>
<event>
 4    1   7.6478753E-02   1.0030000E+03  -1.0000000E+00   9.4060000E-02
        2   -1    0    0  500    0  0.00000000000E+00  0.00000000000E+00  7.07483691930E+02  7.07483691930E+02  0.00000000000E+00  0.0000E+00  9.0
       -2   -1    0    0    0  500  0.00000000000E+00  0.00000000000E+00 -3.55832780890E+02  3.55832780890E+02  0.00000000000E+00  0.0000E+00  9.0
       13    1    1    2    0    0  1.57093550900E+02  2.88743679570E+02  5.77497446650E+02  6.64495754904E+02  1.05700000000E-01  0.0000E+00  9.0
      -13    1    1    2    0    0 -1.57093550900E+02 -2.88743679570E+02 -2.25846535600E+02  3.98820717918E+02  1.05700000000E-01  0.0000E+00  9.0
</event>
<event>
 4    1   7.6478753E-02   1.0230000E+03  -1.0000000E+00   9.3850000E-02
       -2   -1    0    0    0  500  0.00000000000E+00  0.00000000000E+00  8.50814627770E+01  8.50814627770E+01  0.00000000000E+00  0.0000E+00  9.0
        2   -1    0    0  500    0  0.00000000000E+00  0.00000000000E+00 -3.07460090900E+03  3.07460090900E+03  0.00000000000E+00  0.0000E+00  9.0
       13    1    1    2    0    0 -5.41081352570E+01 -2.84732661940E+02 -2.79646373940E+03  2.81144266099E+03  1.05700000000E-01  0.0000E+00  9.0
      -13    1    1    2    0    0  5.41081352570E+01  2.84732661940E+02 -1.93055706870E+02  3.48239710837E+02  1.05700000000E-01  0.0000E+00  9.0
</event>
<event>
 4    1   7.6478753E-02   1.0040000E+03  -1.0000000E+00   9.4050000E-02
        1   -1    0    0  500    0  0.00000000000E+00  0.00000000000E+00  2.32597591400E+03  2.32597591400E+03  0.00000000000E+00  0.0000E+00  9.0
       -1   -1    0    0    0  500  0.00000000000E+00  0.00000000000E+00 -1.08416111340E+02  1.08416111340E+02  0.00000000000E+00  0.0000E+00  9.0
       13    1    1    2    0    0 -2.56054984930E+02  2.84339993510E+02  3.20516349480E+02  4.99143394901E+02  1.05700000000E-01  0.0000E+00  9.0
      -13    1    1    2    0    0  2.56054984930E+02 -2.84339993510E+02  1.89704345320E+03  1.93524863047E+03  1.05700000000E-01  0.0000E+00  9.0
</event>
<event>
 4    1   7.6478753E-02   9.9580000E+02  -1.0000000E+00   9.4140000E-02
       -1   -1    0    0    0  500  0.00000000000E+00  0.00000000000E+00  9.26753037770E+02  9.26753037770E+02  0.00000000000E+00  0.0000E+00  9.0
        1   -1    0    0  500    0  0.00000000000E+00  0.00000000000E+00 -2.67524044020E+02  2.67524044020E+02  0.00000000000E+00  0.0000E+00  9.0
       13    1    1    2    0    0  1.14490119890E+02  1.15725167160E+02 -2.34709283070E+02  2.85637463576E+02  1.05700000000E-01  0.0000E+00  9.0
      -13    1    1    2    0    0 -1.14490119890E+02 -1.15725167160E+02  8.93938276820E+02  9.08639618222E+02  1.05700000000E-01  0.0000E+00  9.0
</event>
<event>
 4    1   7.6478753E-02   9.9650000E+02  -1.0000000E+00   9.4140000E-02
       -1   -1    0    0    0  500  0.00000000000E+00  0.00000000000E+00  4.83840841050E+02  4.83840841050E+02  0.00000000000E+00  0.0000E+00  9.0
        1   -1    0    0  500    0  0.00000000000E+00  0.00000000000E+00 -5.13063680850E+02  5.13063680850E+02  0.00000000000E+00  0.0000E+00  9.0
       13    1    1    2    0    0  2.40812555470E+02 -4.30430969370E+02 -8.52083605950E+01  5.00521709971E+02  1.05700000000E-01  0.0000E+00  9.0
      -13    1    1    2    0    0 -2.40812555470E+02  4.30430969370E+02  5.59855207900E+01  4.96382811926E+02  1.05700000000E-01  0.0000E+00  9.0
</event>
<event>
 4    1   7.6478753E-02   9.9880000E+02  -1.0000000E+00   9.4110000E-02
        1   -1    0    0  500    0  0.00000000000E+00  0.00000000000E+00  1.34549126870E+03  1.34549126870E+03  0.00000000000E+00  0.0000E+00  9.0
       -1   -1    0    0    0  500  0.00000000000E+00  0.00000000000E+00 -1.85369582530E+02  1.85369582530E+02  0.00000000000E+00  0.0000E+00  9.0
       13    1    1    2    0    0 -4.64468525790E+02 -7.25910838060E+01  8.38407021640E+02  9.61211122494E+02  1.05700000000E-01  0.0000E+00  9.0
      -13    1    1    2    0    0  4.64468525790E+02  7.25910838060E+01  3.21714664500E+02  5.69649728714E+02  1.05700000000E-01  0.0000E+00  9.0
</event>
<event>
 4    1   7.6478753E-02   9.9700000E+02  -1.0000000E+00   9.4130000E-02
       -2   -1    0    0    0  500  0.00000000000E+00  0.00000000000E+00  1.91544164170E+02  1.91544164170E+02  0.00000000000E+00  0.0000E+00  9.0
        2   -1    0    0  500    0  0.00000000000E+00  0.00000000000E+00 -1.29735844600E+03  1.29735844600E+03  0.00000000000E+00  0.0000E+00  9.0
       13    1    1    2    0    0 -2.93262973950E+02 -2.49190912150E+02 -1.02610561770E+03  1.09589782025E+03  1.05700000000E-01  0.0000E+00  9.0
      -13    1    1    2    0    0  2.93262973950E+02  2.49190912150E+02 -7.97086641350E+01  3.93004789918E+02  1.05700000000E-01  0.0000E+00  9.0
</event>
<event>
 4    1   7.6478753E-02   1.0000000E+03  -1.0000000E+00   9.4090000E-02
        1   -1    0    0  500    0  0.00000000000E+00  0.00000000000E+00  4.65073408090E+02  4.65073408090E+02  0.00000000000E+00  0.0000E+00  9.0
       -1   -1    0    0    0  500  0.00000000000E+00  0.00000000000E+00 -5.37935498040E+02  5.37935498040E+02  0.00000000000E+00  0.0000E+00  9.0
       13    1    1    2    0    0  6.93274053780E+01  1.94371319080E+02 -4.93261737700E+02  5.34690239175E+02  1.05700000000E-01  0.0000E+00  9.0
      -13    1    1    2    0    0 -6.93274053780E+01 -1.94371319080E+02  4.20399647750E+02  4.68318666955E+02  1.05700000000E-01  0.0000E+00  9.0
</event>
<event>
 4    1   7.6478753E-02   1.0000000E+03  -1.0000000E+00   9.4090000E-02
        1   -1    0    0  500    0  0.00000000000E+00  0.00000000000E+00  3.38342845270E+02  3.38342845270E+02  0.00000000000E+00  0.0000E+00  9.0
       -1   -1    0    0    0  500  0.00000000000E+00  0.00000000000E+00 -7.39350581460E+02  7.39350581460E+02  0.00000000000E+00  0.0000E+00  9.0
       13    1    1    2    0    0  5.72590753480E+01  4.89652664420E+02 -1.09623860820E+02  5.05030430288E+02  1.05700000000E-01  0.0000E+00  9.0
      -13    1    1    2    0    0 -5.72590753480E+01 -4.89652664420E+02 -2.91383875380E+02  5.72662996436E+02  1.05700000000E-01  0.0000E+00  9.0
</event>
<event>
 4    1   7.6478753E-02   9.9550000E+02  -1.0000000E+00   9.4150000E-02
        2   -1    0    0  500    0  0.00000000000E+00  0.00000000000E+00  6.23368285050E+02  6.23368285050E+02  0.00000000000E+00  0.0000E+00  9.0
       -2   -1    0    0    0  500  0.00000000000E+00  0.00000000000E+00 -3.97412112320E+02  3.97412112320E+02  0.00000000000E+00  0.0000E+00  9.0
       13    1    1    2    0    0 -4.82837811050E+02 -1.13049765810E+02  6.92134477380E+01  5.00702620174E+02  1.05700000000E-01  0.0000E+00  9.0
      -13    1    1    2    0    0  4.82837811050E+02  1.13049765810E+02  1.56742724990E+02  5.20077777202E+02  1.05700000000E-01  0.0000E+00  9.0
</event>
<event>
 4    1   7.6478753E-02   9.9160000E+02  -1.0000000E+00   9.4190000E-02
        1   -1    0    0  500    0  0.00000000000E+00  0.00000000000E+00  8.25274029850E+02  8.25274029850E+02  0.00000000000E+00  0.0000E+00  9.0
       -1   -1    0    0    0  500  0.00000000000E+00  0.00000000000E+00 -2.97833499350E+02  2.97833499350E+02  0.00000000000E+00  0.0000E+00  9.0
       13    1    1    2    0    0  2.84477790870E+02 -1.15682041450E+02 -1.77128149600E+02  3.54519873583E+02  1.05700000000E-01  0.0000E+00  9.0
      -13    1    1    2    0    0 -2.84477790870E+02  1.15682041450E+02  7.04568680100E+02  7.68587655614E+02  1.05700000000E-01  0.0000E+00  9.0
</event>
<event>
 4    1   7.6478753E-02   9.9830000E+02  -1.0000000E+00   9.4120000E-02
       -1   -1    0    0    0  500  0.00000000000E+00  0.00000000000E+00  9.49833981050E+02  9.49833981050E+02  0.00000000000E+00  0.0000E+00  9.0
        1   -1    0    0  500    0  0.00000000000E+00  0.00000000000E+00 -2.62315890390E+02  2.62315890390E+02  0.00000000000E+00  0.0000E+00  9.0
       13    1    1    2    0    0  3.54334880390E+02  1.36756609670E+02  7.37019157780E+02  8.29127751228E+02  1.05700000000E-01  0.0000E+00  9.0
      -13    1    1    2    0    0 -3.54334880390E+02 -1.36756609670E+02 -4.95010671270E+01  3.83022120208E+02  1.05700000000E-01  0.0000E+00  9.0
</event>
<event>
 4    1   7.6478753E-02   1.0050000E+03  -1.0000000E+00   9.4050000E-02
       -2   -1    0    0    0  500  0.00000000000E+00  0.00000000000E+00  1.40183927530E+02  1.40183927530E+02  0.00000000000E+00  0.0000E+00  9.0
        2   -1    0    0  500    0  0.00000000000E+00  0.00000000000E+00 -1.80003623330E+03  1.80003623330E+03  0.00000000000E+00  0.0000E+00  9.0
       13    1    1    2    0    0 -2.66830380660E+02 -3.49649553700E+02 -1.29855151210E+03  1.37101761593E+03  1.05700000000E-01  0.0000E+00  9.0
      -13    1    1    2    0    0  2.66830380660E+02  3.49649553700E+02 -3.61300793660E+02  5.69202544897E+02  1.05700000000E-01  0.0000E+00  9.0
</event>
<event>
 4    1   7.6478753E-02   9.9930000E+02  -1.0000000E+00   9.4110000E-02
        1   -1    0    0  500    0  0.00000000000E+00  0.00000000000E+00  1.95290210800E+03  1.95290210800E+03  0.00000000000E+00  0.0000E+00  9.0
       -1   -1    0    0    0  500  0.00000000000E+00  0.00000000000E+00 -1.27829336210E+02  1.27829336210E+02  0.00000000000E+00  0.0000E+00  9.0
       13    1    1    2    0    0  1.99206924680E+02 -4.21767395350E+02  1.28540852070E+03  1.36742320109E+03  1.05700000000E-01  0.0000E+00  9.0
      -13    1    1    2    0    0 -1.99206924680E+02  4.21767395350E+02  5.39664251070E+02  7.13308243101E+02  1.05700000000E-01  0.0000E+00  9.0
</event>
<event>
 4    1   7.6478753E-02   9.8800000E+02  -1.0000000E+00   9.4230000E-02
        1   -1    0    0  500    0  0.00000000000E+00  0.00000000000E+00  2.59312847440E+02  2.59312847440E+02  0.00000000000E+00  0.0000E+00  9.0
       -1   -1    0    0    0  500  0.00000000000E+00  0.00000000000E+00 -9.41018012830E+02  9.41018012830E+02  0.00000000000E+00  0.0000E+00  9.0
       13    1    1    2    0    0 -9.58757122120E+01 -2.02535835400E+02 -8.75715671240E+02  9.03930785426E+02  1.05700000000E-01  0.0000E+00  9.0
      -13    1    1    2    0    0  9.58757122120E+01  2.02535835400E+02  1.94010505850E+02  2.96400074841E+02  1.05700000000E-01  0.0000E+00  9.0
</event>
<event>
 4    1   7.6478753E-02   1.0040000E+03  -1.0000000E+00   9.4050000E-02
       -2   -1    0    0    0  500  0.00000000000E+00  0.00000000000E+00  6.92066645730E+02  6.92066645730E+02  0.00000000000E+00  0.0000E+00  9.0
        2   -1    0    0  500    0  0.00000000000E+00  0.00000000000E+00 -3.64329310590E+02  3.64329310590E+02  0.00000000000E+00  0.0000E+00  9.0
       13    1    1    2    0    0 -1.36839976370E+02 -3.14032167530E+02 -2.22337038420E+02  4.08381134729E+02  1.05700000000E-01  0.0000E+00  9.0
      -13    1    1    2    0    0  1.36839976370E+02  3.14032167530E+02  5.50074373560E+02  6.48014821587E+02  1.05700000000E-01  0.0000E+00  9.0
</event>
<event>
 4    1   7.6478753E-02   9.9380000E+02  -1.0000000E+00   9.4170000E-02
       -2   -1    0    0    0  500  0.00000000000E+00  0.00000000000E+00  1.55772811470E+02  1.55772811470E+02  0.00000000000E+00  0.0000E+00  9.0
        2   -1    0    0  500    0  0.00000000000E+00  0.00000000000E+00 -1.58495495760E+03  1.58495495760E+03  0.00000000000E+00  0.0000E+00  9.0
       13    1    1    2    0    0  2.63068452010E+02  3.83122073700E+02 -1.02252913150E+03  1.12318892878E+03  1.05700000000E-01  0.0000E+00  9.0
      -13    1    1    2    0    0 -2.63068452010E+02 -3.83122073700E+02 -4.06653014700E+02  6.17538840346E+02  1.05700000000E-01  0.0000E+00  9.0
</event>
<event>
 4    1   7.6478753E-02   1.0090000E+03  -1.0000000E+00   9.4000000E-02
        1   -1    0    0  500    0  0.00000000000E+00  0.00000000000E+00  7.08061704660E+02  7.08061704660E+02  0.00000000000E+00  0.0000E+00  9.0
       -1   -1    0    0    0  500  0.00000000000E+00  0.00000000000E+00 -3.59648419980E+02  3.59648419980E+02  0.00000000000E+00  0.0000E+00  9.0
       13    1    1    2    0    0 -4.75017460610E+01 -1.41450218930E+02  6.84190253800E+02  7.00272014921E+02  1.05700000000E-01  0.0000E+00  9.0
      -13    1    1    2    0    0  4.75017460610E+01  1.41450218930E+02 -3.35776969120E+02  3.67438109725E+02  1.05700000000E-01  0.0000E+00  9.0
</event>
<event>
 4    1   7.6478753E-02   1.0020000E+03  -1.0000000E+00   9.4080000E-02
        1   -1    0    0  500    0  0.00000000000E+00  0.00000000000E+00  2.01327891650E+03  2.01327891650E+03  0.00000000000E+00  0.0000E+00  9.0
       -1   -1    0    0    0  500  0.00000000000E+00  0.00000000000E+00 -1.24608217740E+02  1.24608217740E+02  0.00000000000E+00  0.0000E+00  9.0
       13    1    1    2    0    0  2.58927515450E+02 -4.22837248890E+02  1.09579075890E+03  1.20274361182E+03  1.05700000000E-01  0.0000E+00  9.0
      -13    1    1    2    0    0 -2.58927515450E+02  4.22837248890E+02  7.92879939910E+02  9.35143522455E+02  1.05700000000E-01  0.0000E+00  9.0
</event>
<event>
 4    1   7.6478753E-02   1.0040000E+03  -1.0000000E+00   9.4050000E-02
       -1   -1    0    0    0  500  0.00000000000E+00  0.00000000000E+00  5.60751798840E+02  5.60751798840E+02  0.00000000000E+00  0.0000E+00  9.0
        1   -1    0    0  500    0  0.00000000000E+00  0.00000000000E+00 -4.49366967990E+02  4.49366967990E+02  0.00000000000E+00  0.0000E+00  9.0
       13    1    1    2    0    0 -1.66092956950E+02 -5.27300005590E+01  5.29341923940E+02  5.57288261962E+02  1.05700000000E-01  0.0000E+00  9.0
      -13    1    1    2    0    0  1.66092956950E+02  5.27300005590E+01 -4.17957093090E+02  4.52830504874E+02  1.05700000000E-01  0.0000E+00  9.0
</event>
<event>
 4    1   7.6478753E-02   9.9900000E+02  -1.0000000E+00   9.4110000E-02
        1   -1    0    0  500    0  0.00000000000E+00  0.00000000000E+00  9.94179621960E+02  9.94179621960E+02  0.00000000000E+00  0.0000E+00  9.0
       -1   -1    0    0    0  500  0.00000000000E+00  0.00000000000E+00 -2.50939449030E+02  2.50939449030E+02  0.00000000000E+00  0.0000E+00  9.0
       13    1    1    2    0    0  2.14385754910E+02  2.92894229440E+02 -5.60497870590E+01  3.67273564730E+02  1.05700000000E-01  0.0000E+00  9.0
      -13    1    1    2    0    0 -2.14385754910E+02 -2.92894229440E+02  7.99289959990E+02  8.77845506260E+02  1.05700000000E-01  0.0000E+00  9.0
</event>
<event>
 4    1   7.6478753E-02   9.9910000E+02  -1.0000000E+00   9.4110000E-02
       -2   -1    0    0    0  500  0.00000000000E+00  0.00000000000E+00  2.28324590440E+02  2.28324590440E+02  0.00000000000E+00  0.0000E+00  9.0
        2   -1    0    0  500    0  0.00000000000E+00  0.00000000000E+00 -1.09298126890E+03  1.09298126890E+03  0.00000000000E+00  0.0000E+00  9.0
       13    1    1    2    0    0  1.46524696010E+02 -2.03563991390E+02 -1.00367648840E+03  1.03454061770E+03  1.05700000000E-01  0.0000E+00  9.0
      -13    1    1    2    0    0 -1.46524696010E+02  2.03563991390E+02  1.39019809890E+02  2.86765241697E+02  1.05700000000E-01  0.0000E+00  9.0
</event>
<event>
 4    1   7.6478753E-02   1.0010000E+03  -1.0000000E+00   9.4090000E-02
        1   -1    0    0  500    0  0.00000000000E+00  0.00000000000E+00  2.24854655800E+03  2.24854655800E+03  0.00000000000E+00  0.0000E+00  9.0
       -1   -1    0    0    0  500  0.00000000000E+00  0.00000000000E+00 -1.11325398080E+02  1.11325398080E+02  0.00000000000E+00  0.0000E+00  9.0
       13    1    1    2    0    0  3.31852138260E+02  3.13287748170E+02  1.55219129160E+03  1.61789148947E+03  1.05700000000E-01  0.0000E+00  9.0
      -13    1    1    2    0    0 -3.31852138260E+02 -3.13287748170E+02  5.85029868310E+02  7.41980466595E+02  1.05700000000E-01  0.0000E+00  9.0
</event>
<event>
 4    1   7.6478753E-02   9.9800000E+02  -1.0000000E+00   9.4120000E-02
       -1   -1    0    0    0  500  0.00000000000E+00  0.00000000000E+00  6.12475792550E+02  6.12475792550E+02  0.00000000000E+00  0.0000E+00  9.0
        1   -1    0    0  500    0  0.00000000000E+00  0.00000000000E+00 -4.06566474370E+02  4.06566474370E+02  0.00000000000E+00  0.0000E+00  9.0
       13    1    1    2    0    0 -3.78867576400E+02  1.65079929080E+02  3.88523690740E+02  5.67223670937E+02  1.05700000000E-01  0.0000E+00  9.0
      -13    1    1    2    0    0  3.78867576400E+02 -1.65079929080E+02 -1.82614372560E+02  4.51818595977E+02  1.05700000000E-01  0.0000E+00  9.0
</event>
<event>
 4    1   7.6478753E-02   9.9670000E+02  -1.0000000E+00   9.4130000E-02
       -1   -1    0    0    0  500  0.00000000000E+00  0.00000000000E+00  5.55088187510E+02  5.55088187510E+02  0.00000000000E+00  0.0000E+00  9.0
        1   -1    0    0  500    0  0.00000000000E+00  0.00000000000E+00 -4.47379339390E+02  4.47379339390E+02  0.00000000000E+00  0.0000E+00  9.0
       13    1    1    2    0    0  2.97416770430E+02 -1.33669345810E+02  4.32891739620E+02  5.41958945628E+02  1.05700000000E-01  0.0000E+00  9.0
      -13    1    1    2    0    0 -2.97416770430E+02  1.33669345810E+02 -3.25182891490E+02  4.60508581280E+02  1.05700000000E-01  0.0000E+00  9.0
</event>
<event>
 4    1   7.6478753E-02   9.9950000E+02  -1.0000000E+00   9.4100000E-02
       -2   -1    0    0    0  500  0.00000000000E+00  0.00000000000E+00  3.20618116240E+02  3.20618116240E+02  0.00000000000E+00  0.0000E+00  9.0
        2   -1    0    0  500    0  0.00000000000E+00  0.00000000000E+00 -7.78933267940E+02  7.78933267940E+02  0.00000000000E+00  0.0000E+00  9.0
       13    1    1    2    0    0 -7.49899344120E+01 -4.54603927380E+02 -4.42058829130E+02  6.38517220313E+02  1.05700000000E-01  0.0000E+00  9.0
      -13    1    1    2    0    0  7.49899344120E+01  4.54603927380E+02 -1.62563225620E+01  4.61034163862E+02  1.05700000000E-01  0.0000E+00  9.0
</event>
<event>
 4    1   7.6478753E-02   1.0050000E+03  -1.0000000E+00   9.4050000E-02
       -1   -1    0    0    0  500  0.00000000000E+00  0.00000000000E+00  4.30351331750E+02  4.30351331750E+02  0.00000000000E+00  0.0000E+00  9.0
        1   -1    0    0  500    0  0.00000000000E+00  0.00000000000E+00 -5.86388627430E+02  5.86388627430E+02  0.00000000000E+00  0.0000E+00  9.0
       13    1    1    2    0    0  3.55702698820E+01  1.66108295730E+01 -5.84833887500E+02  5.86150024225E+02  1.05700000000E-01  0.0000E+00  9.0
      -13    1    1    2    0    0 -3.55702698820E+01 -1.66108295730E+01  4.28796591820E+02  4.30589934958E+02  1.05700000000E-01  0.0000E+00  9.0
</event>
<event>
 4    1   7.6478753E-02   9.9590000E+02  -1.0000000E+00   9.4140000E-02
        1   -1    0    0  500    0  0.00000000000E+00  0.00000000000E+00  7.97299919020E+02  7.97299919020E+02  0.00000000000E+00  0.0000E+00  9.0
       -1   -1    0    0    0  500  0.00000000000E+00  0.00000000000E+00 -3.11004262110E+02  3.11004262110E+02  0.00000000000E+00  0.0000E+00  9.0
       13    1    1    2    0    0 -1.79286710950E+02  3.56343015450E+02 -8.85466364320E+01  4.08613004418E+02  1.05700000000E-01  0.0000E+00  9.0
      -13    1    1    2    0    0  1.79286710950E+02 -3.56343015450E+02  5.74842293350E+02  6.99691176720E+02  1.05700000000E-01  0.0000E+00  9.0
</event>
<event>
 4    1   7.6478753E-02   1.0020000E+03  -1.0000000E+00   9.4070000E-02
        1   -1    0    0  500    0  0.00000000000E+00  0.00000000000E+00  6.18286431680E+02  6.18286431680E+02  0.00000000000E+00  0.0000E+00  9.0
       -1   -1    0    0    0  500  0.00000000000E+00  0.00000000000E+00 -4.06075242010E+02  4.06075242010E+02  0.00000000000E+00  0.0000E+00  9.0
       13    1    1    2    0    0  4.37247360130E+02  6.49085173470E+01 -1.35076635400E+02  4.62216484094E+02  1.05700000000E-01  0.0000E+00  9.0
      -13    1    1    2    0    0 -4.37247360130E+02 -6.49085173470E+01  3.47287825070E+02  5.62145189590E+02  1.05700000000E-01  0.0000E+00  9.0
</event>
<event>
 4    1   7.6478753E-02   9.2880000E+02  -1.0000000E+00   9.4900000E-02
       -2   -1    0    0    0  500  0.00000000000E+00  0.00000000000E+00  2.85054848080E+02  2.85054848080E+02  0.00000000000E+00  0.0000E+00  9.0
        2   -1    0    0  500    0  0.00000000000E+00  0.00000000000E+00 -7.56506412360E+02  7.56506412360E+02  0.00000000000E+00  0.0000E+00  9.0
       13    1    1    2    0    0  1.23233538830E+02 -2.02820498310E+02  2.11908914590E+02  3.18163572526E+02  1.05700000000E-01  0.0000E+00  9.0
      -13    1    1    2    0    0 -1.23233538830E+02  2.02820498310E+02 -6.83360478880E+02  7.23397687925E+02  1.05700000000E-01  0.0000E+00  9.0
</event>
<event>
 4    1   7.6478753E-02   1.0030000E+03  -1.0000000E+00   9.4060000E-02
        1   -1    0    0  500    0  0.00000000000E+00  0.00000000000E+00  1.06497208540E+03  1.06497208540E+03  0.00000000000E+00  0.0000E+00  9.0
       -1   -1    0    0    0  500  0.00000000000E+00  0.00000000000E+00 -2.36221405460E+02  2.36221405460E+02  0.00000000000E+00  0.0000E+00  9.0
       13    1    1    2    0    0  1.42648544370E+02 -1.13123775470E+01 -2.09181694170E+02  2.53443424545E+02  1.05700000000E-01  0.0000E+00  9.0
      -13    1    1    2    0    0 -1.42648544370E+02  1.13123775470E+01  1.03793237410E+03  1.04775006632E+03  1.05700000000E-01  0.0000E+00  9.0
</event>
<event>
 4    1   7.6478753E-02   9.9520000E+02  -1.0000000E+00   9.4150000E-02
        1   -1    0    0  500    0  0.00000000000E+00  0.00000000000E+00  5.60929315490E+02  5.60929315490E+02  0.00000000000E+00  0.0000E+00  9.0
       -1   -1    0    0    0  500  0.00000000000E+00  0.00000000000E+00 -4.41444920050E+02  4.41444920050E+02  0.00000000000E+00  0.0000E+00  9.0
       13    1    1    2    0    0  4.03657600110E+02  1.37515929390E+02  3.18039082170E+02  5.31976463692E+02  1.05700000000E-01  0.0000E+00  9.0
      -13    1    1    2    0    0 -4.03657600110E+02 -1.37515929390E+02 -1.98554686720E+02  4.70397771842E+02  1.05700000000E-01  0.0000E+00  9.0
</event>
<event>
 4    1   7.6478753E-02   9.9870000E+02  -1.0000000E+00   9.4110000E-02
        2   -1    0    0  500    0  0.00000000000E+00  0.00000000000E+00  7.39715831050E+02  7.39715831050E+02  0.00000000000E+00  0.0000E+00  9.0
       -2   -1    0    0    0  500  0.00000000000E+00  0.00000000000E+00 -3.37060489140E+02  3.37060489140E+02  0.00000000000E+00  0.0000E+00  9.0
       13    1    1    2    0    0  3.08056138240E+02 -3.69798579960E+02  5.79627778040E+01  4.84777545717E+02  1.05700000000E-01  0.0000E+00  9.0
      -13    1    1    2    0    0 -3.08056138240E+02  3.69798579960E+02  3.44692564110E+02  5.91998774469E+02  1.05700000000E-01  0.0000E+00  9.0
</event>
<event>
 4    1   7.6478753E-02   9.9510000E+02  -1.0000000E+00   9.4150000E-02
        1   -1    0    0  500    0  0.00000000000E+00  0.00000000000E+00  5.32323909930E+02  5.32323909930E+02  0.00000000000E+00  0.0000E+00  9.0
       -1   -1    0    0    0  500  0.00000000000E+00  0.00000000000E+00 -4.65034129350E+02  4.65034129350E+02  0.00000000000E+00  0.0000E+00  9.0
       13    1    1    2    0    0 -4.55121963760E+02  1.79284860720E+02 -5.75007456640E+01  4.92529603277E+02  1.05700000000E-01  0.0000E+00  9.0
      -13    1    1    2    0    0  4.55121963760E+02 -1.79284860720E+02  1.24790526250E+02  5.04828436000E+02  1.05700000000E-01  0.0000E+00  9.0
</event>
<event>
 4    1   7.6478753E-02   1.0010000E+03  -1.0000000E+00   9.4090000E-02
       -1   -1    0    0    0  500  0.00000000000E+00  0.00000000000E+00  6.83214513080E+01  6.83214513080E+01  0.00000000000E+00  0.0000E+00  9.0
        1   -1    0    0  500    0  0.00000000000E+00  0.00000000000E+00 -3.66573398720E+03  3.66573398720E+03  0.00000000000E+00  0.0000E+00  9.0
       13    1    1    2    0    0  4.72306838630E+02 -3.08671751960E+01 -1.19228794410E+03  1.28280048532E+03  1.05700000000E-01  0.0000E+00  9.0
      -13    1    1    2    0    0 -4.72306838630E+02  3.08671751960E+01 -2.40512459180E+03  2.45125495320E+03  1.05700000000E-01  0.0000E+00  9.0
</event>
<event>
 4    1   7.6478753E-02   9.9160000E+02  -1.0000000E+00   9.4190000E-02
        1   -1    0    0  500    0  0.00000000000E+00  0.00000000000E+00  4.07117722930E+02  4.07117722930E+02  0.00000000000E+00  0.0000E+00  9.0
       -1   -1    0    0    0  500  0.00000000000E+00  0.00000000000E+00 -6.03855820820E+02  6.03855820820E+02  0.00000000000E+00  0.0000E+00  9.0
       13    1    1    2    0    0 -1.83238408030E+02  2.33451705360E+02  3.06568120970E+02  4.26684938661E+02  1.05700000000E-01  0.0000E+00  9.0
      -13    1    1    2    0    0  1.83238408030E+02 -2.33451705360E+02 -5.03306218860E+02  5.84288605082E+02  1.05700000000E-01  0.0000E+00  9.0
</event>
<event>
 4    1   7.6478753E-02   1.0100000E+03  -1.0000000E+00   9.4000000E-02
        1   -1    0    0  500    0  0.00000000000E+00  0.00000000000E+00  1.17431925520E+03  1.17431925520E+03  0.00000000000E+00  0.0000E+00  9.0
       -1   -1    0    0    0  500  0.00000000000E+00  0.00000000000E+00 -2.16962130920E+02  2.16962130920E+02  0.00000000000E+00  0.0000E+00  9.0
       13    1    1    2    0    0  1.27598084030E+01  5.02371199800E+02  5.43951056920E+02  7.40555466252E+02  1.05700000000E-01  0.0000E+00  9.0
      -13    1    1    2    0    0 -1.27598084030E+01 -5.02371199800E+02  4.13406067390E+02  6.50725919897E+02  1.05700000000E-01  0.0000E+00  9.0
</event>
<event>
 4    1   7.6478753E-02   9.9830000E+02  -1.0000000E+00   9.4120000E-02
        1   -1    0    0  500    0  0.00000000000E+00  0.00000000000E+00  7.99049426000E+02  7.99049426000E+02  0.00000000000E+00  0.0000E+00  9.0
       -1   -1    0    0    0  500  0.00000000000E+00  0.00000000000E+00 -3.11807966600E+02  3.11807966600E+02  0.00000000000E+00  0.0000E+00  9.0
       13    1    1    2    0    0 -5.89012378620E+01  3.05443057070E+01 -3.06879061030E+02  3.13969870695E+02  1.05700000000E-01  0.0000E+00  9.0
      -13    1    1    2    0    0  5.89012378620E+01 -3.05443057070E+01  7.94120520420E+02  7.96887521898E+02  1.05700000000E-01  0.0000E+00  9.0
</event>
<event>
 4    1   7.6478753E-02   1.0020000E+03  -1.0000000E+00   9.4070000E-02
        3   -1    0    0  500    0  0.00000000000E+00  0.00000000000E+00  3.83839572260E+02  3.83839624365E+02  2.00000000000E-01  0.0000E+00  9.0
       -3   -1    0    0    0  500  0.00000000000E+00  0.00000000000E+00 -6.54366645470E+02  6.54366676034E+02  2.00000000000E-01  0.0000E+00  9.0
       13    1    1    2    0    0  4.41136873010E+02  1.08507840480E+02  8.39606845630E+01  4.61979544893E+02  1.05700000000E-01  0.0000E+00  9.0
      -13    1    1    2    0    0 -4.41136873010E+02 -1.08507840480E+02 -3.54487757770E+02  5.76226755502E+02  1.05700000000E-01  0.0000E+00  9.0
</event>
<event>
 4    1   7.6478753E-02   9.9250000E+02  -1.0000000E+00   9.4180000E-02
        1   -1    0    0  500    0  0.00000000000E+00  0.00000000000E+00  9.30127989280E+02  9.30127989280E+02  0.00000000000E+00  0.0000E+00  9.0
       -1   -1    0    0    0  500  0.00000000000E+00  0.00000000000E+00 -2.64763093440E+02  2.64763093440E+02  0.00000000000E+00  0.0000E+00  9.0
       13    1    1    2    0    0 -3.70815922830E+02  3.22203441500E+02  2.48030002970E+02  5.50307550270E+02  1.05700000000E-01  0.0000E+00  9.0
      -13    1    1    2    0    0  3.70815922830E+02 -3.22203441500E+02  4.17334892860E+02  6.44583532453E+02  1.05700000000E-01  0.0000E+00  9.0
</event>
<event>
 4    1   7.6478753E-02   9.9800000E+02  -1.0000000E+00   9.4120000E-02
       -2   -1    0    0    0  500  0.00000000000E+00  0.00000000000E+00  1.09766926730E+02  1.09766926730E+02  0.00000000000E+00  0.0000E+00  9.0
        2   -1    0    0  500    0  0.00000000000E+00  0.00000000000E+00 -2.26835755410E+03  2.26835755410E+03  0.00000000000E+00  0.0000E+00  9.0
       13    1    1    2    0    0 -2.91513174690E+01  4.31191795620E+02 -4.84922747970E+02  6.49558501285E+02  1.05700000000E-01  0.0000E+00  9.0
      -13    1    1    2    0    0  2.91513174690E+01 -4.31191795620E+02 -1.67366787930E+03  1.72856597944E+03  1.05700000000E-01  0.0000E+00  9.0
</event>
<event>
 4    1   7.6478753E-02   1.0080000E+03  -1.0000000E+00   9.4020000E-02
       -2   -1    0    0    0  500  0.00000000000E+00  0.00000000000E+00  1.93407946760E+02  1.93407946760E+02  0.00000000000E+00  0.0000E+00  9.0
        2   -1    0    0  500    0  0.00000000000E+00  0.00000000000E+00 -1.31213334110E+03  1.31213334110E+03  0.00000000000E+00  0.0000E+00  9.0
       13    1    1    2    0    0 -4.38204502790E+02  1.12557367860E+02 -2.28300638430E+02  5.06767737731E+02  1.05700000000E-01  0.0000E+00  9.0
      -13    1    1    2    0    0  4.38204502790E+02 -1.12557367860E+02 -8.90424755880E+02  9.98773550101E+02  1.05700000000E-01  0.0000E+00  9.0
</event>
<event>
 4    1   7.6478753E-02   9.9480000E+02  -1.0000000E+00   9.4150000E-02
       -1   -1    0    0    0  500  0.00000000000E+00  0.00000000000E+00  2.89282256740E+02  2.89282256740E+02  0.00000000000E+00  0.0000E+00  9.0
        1   -1    0    0  500    0  0.00000000000E+00  0.00000000000E+00 -8.55230047400E+02  8.55230047400E+02  0.00000000000E+00  0.0000E+00  9.0
       13    1    1    2    0    0 -8.17202095360E+01  4.32950262620E+02 -1.74124110980E+01  4.40939140678E+02  1.05700000000E-01  0.0000E+00  9.0
      -13    1    1    2    0    0  8.17202095360E+01 -4.32950262620E+02 -5.48535379560E+02  7.03573163467E+02  1.05700000000E-01  0.0000E+00  9.0
</event>
<event>
 4    1   7.6478753E-02   9.6880000E+02  -1.0000000E+00   9.4440000E-02
        1   -1    0    0  500    0  0.00000000000E+00  0.00000000000E+00  4.62230464090E+02  4.62230464090E+02  0.00000000000E+00  0.0000E+00  9.0
       -1   -1    0    0    0  500  0.00000000000E+00  0.00000000000E+00 -5.07664574210E+02  5.07664574210E+02  0.00000000000E+00  0.0000E+00  9.0
       13    1    1    2    0    0  4.05885360110E+02 -4.77451438700E+00 -2.87379117980E+02  4.97345443492E+02  1.05700000000E-01  0.0000E+00  9.0
      -13    1    1    2    0    0 -4.05885360110E+02  4.77451438700E+00  2.41945007870E+02  4.72549594799E+02  1.05700000000E-01  0.0000E+00  9.0
</event>
<event>
 4    1   7.6478753E-02   1.0050000E+03  -1.0000000E+00   9.4040000E-02
        2   -1    0    0  500    0  0.00000000000E+00  0.00000000000E+00  1.38285739930E+03  1.38285739930E+03  0.00000000000E+00  0.0000E+00  9.0
       -2   -1    0    0    0  500  0.00000000000E+00  0.00000000000E+00 -1.82774219330E+02  1.82774219330E+02  0.00000000000E+00  0.0000E+00  9.0
       13    1    1    2    0    0  4.70889510490E+02 -1.05187296790E+02  3.80114851480E+02  6.14238235527E+02  1.05700000000E-01  0.0000E+00  9.0
      -13    1    1    2    0    0 -4.70889510490E+02  1.05187296790E+02  8.19968328520E+02  9.51393383120E+02  1.05700000000E-01  0.0000E+00  9.0
</event>
<event>
 4    1   7.6478753E-02   1.0010000E+03  -1.0000000E+00   9.4090000E-02
        1   -1    0    0  500    0  0.00000000000E+00  0.00000000000E+00  3.82071866890E+02  3.82071866890E+02  0.00000000000E+00  0.0000E+00  9.0
       -1   -1    0    0    0  500  0.00000000000E+00  0.00000000000E+00 -6.55752430320E+02  6.55752430320E+02  0.00000000000E+00  0.0000E+00  9.0
       13    1    1    2    0    0  1.65776533940E+02  4.69480529960E+02 -1.90214684130E+02  5.32987302333E+02  1.05700000000E-01  0.0000E+00  9.0
      -13    1    1    2    0    0 -1.65776533940E+02 -4.69480529960E+02 -8.34658792960E+01  5.04836994876E+02  1.05700000000E-01  0.0000E+00  9.0
</event>
<event>
 4    1   7.6478753E-02   9.9840000E+02  -1.0000000E+00   9.4120000E-02
        1   -1    0    0  500    0  0.00000000000E+00  0.00000000000E+00  9.60432979250E+02  9.60432979250E+02  0.00000000000E+00  0.0000E+00  9.0
       -1   -1    0    0    0  500  0.00000000000E+00  0.00000000000E+00 -2.59459534900E+02  2.59459534900E+02  0.00000000000E+00  0.0000E+00  9.0
       13    1    1    2    0    0 -2.17178552570E+02 -6.93165894080E+01 -1.92139887170E+02  2.98142685099E+02  1.05700000000E-01  0.0000E+00  9.0
      -13    1    1    2    0    0  2.17178552570E+02  6.93165894080E+01  8.93113331510E+02  9.21749829052E+02  1.05700000000E-01  0.0000E+00  9.0
</event>
<event>
 4    1   7.6478753E-02   1.0000000E+03  -1.0000000E+00   9.4090000E-02
        2   -1    0    0  500    0  0.00000000000E+00  0.00000000000E+00  6.14058127810E+02  6.14058127810E+02  0.00000000000E+00  0.0000E+00  9.0
       -2   -1    0    0    0  500  0.00000000000E+00  0.00000000000E+00 -4.07489103320E+02  4.07489103320E+02  0.00000000000E+00  0.0000E+00  9.0
       13    1    1    2    0    0 -2.63935843200E+01 -1.42559693230E+02  5.92133822790E+02  6.09624772045E+02  1.05700000000E-01  0.0000E+00  9.0
      -13    1    1    2    0    0  2.63935843200E+01  1.42559693230E+02 -3.85564798310E+02  4.11922459081E+02  1.05700000000E-01  0.0000E+00  9.0
</event>
<event>
 4    1   7.6478753E-02   1.0080000E+03  -1.0000000E+00   9.4010000E-02
       -1   -1    0    0    0  500  0.00000000000E+00  0.00000000000E+00  1.61232489090E+02  1.61232489090E+02  0.00000000000E+00  0.0000E+00  9.0
        1   -1    0    0  500    0  0.00000000000E+00  0.00000000000E+00 -1.57572881780E+03  1.57572881780E+03  0.00000000000E+00  0.0000E+00  9.0
       13    1    1    2    0    0 -2.03603390130E+01 -4.19868785020E+02 -1.18646872140E+03  1.25873443509E+03  1.05700000000E-01  0.0000E+00  9.0
      -13    1    1    2    0    0  2.03603390130E+01  4.19868785020E+02 -2.28027607300E+02  4.78226871790E+02  1.05700000000E-01  0.0000E+00  9.0
</event>
<event>
 4    1   7.6478753E-02   9.9810000E+02  -1.0000000E+00   9.4120000E-02
       -2   -1    0    0    0  500  0.00000000000E+00  0.00000000000E+00  5.77606459600E+02  5.77606459600E+02  0.00000000000E+00  0.0000E+00  9.0
        2   -1    0    0  500    0  0.00000000000E+00  0.00000000000E+00 -4.31152191750E+02  4.31152191750E+02  0.00000000000E+00  0.0000E+00  9.0
       13    1    1    2    0    0  9.26518035730E+01 -1.38502666040E+02 -4.02202424600E+02  4.35355196055E+02  1.05700000000E-01  0.0000E+00  9.0
      -13    1    1    2    0    0 -9.26518035730E+01  1.38502666040E+02  5.48656692450E+02  5.73403455298E+02  1.05700000000E-01  0.0000E+00  9.0
</event>
<event>
 4    1   7.6478753E-02   9.9960000E+02  -1.0000000E+00   9.4100000E-02
        1   -1    0    0  500    0  0.00000000000E+00  0.00000000000E+00  7.34291767600E+02  7.34291767600E+02  0.00000000000E+00  0.0000E+00  9.0
       -1   -1    0    0    0  500  0.00000000000E+00  0.00000000000E+00 -3.40217734610E+02  3.40217734610E+02  0.00000000000E+00  0.0000E+00  9.0
       13    1    1    2    0    0 -4.13654351280E+02 -1.04710135090E+02  4.76810067390E+02  6.39860911652E+02  1.05700000000E-01  0.0000E+00  9.0
      -13    1    1    2    0    0  4.13654351280E+02  1.04710135090E+02 -8.27360343960E+01  4.34648590569E+02  1.05700000000E-01  0.0000E+00  9.0
</event>
<event>
 4    1   7.6478753E-02   1.0010000E+03  -1.0000000E+00   9.4090000E-02
        1   -1    0    0  500    0  0.00000000000E+00  0.00000000000E+00  5.25266645850E+02  5.25266645850E+02  0.00000000000E+00  0.0000E+00  9.0
       -1   -1    0    0    0  500  0.00000000000E+00  0.00000000000E+00 -4.76869372090E+02  4.76869372090E+02  0.00000000000E+00  0.0000E+00  9.0
       13    1    1    2    0    0 -9.55111560050E+00  5.00378652430E+02  2.05140122660E+01  5.00890063276E+02  1.05700000000E-01  0.0000E+00  9.0
      -13    1    1    2    0    0  9.55111560050E+00 -5.00378652430E+02  2.78832615020E+01  5.01245954658E+02  1.05700000000E-01  0.0000E+00  9.0
</event>
<event>
 4    1   7.6478753E-02   9.9970000E+02  -1.0000000E+00   9.4100000E-02
        1   -1    0    0  500    0  0.00000000000E+00  0.00000000000E+00  7.70238284840E+02  7.70238284840E+02  0.00000000000E+00  0.0000E+00  9.0
       -1   -1    0    0    0  500  0.00000000000E+00  0.00000000000E+00 -3.24403379930E+02  3.24403379930E+02  0.00000000000E+00  0.0000E+00  9.0
       13    1    1    2    0    0 -3.28289898610E+02 -3.04286888960E+02 -2.06969969700E+01  4.48099481341E+02  1.05700000000E-01  0.0000E+00  9.0
      -13    1    1    2    0    0  3.28289898610E+02  3.04286888960E+02  4.66531901880E+02  6.46542183439E+02  1.05700000000E-01  0.0000E+00  9.0
</event>
<event>
 4    1   7.6478753E-02   9.9880000E+02  -1.0000000E+00   9.4110000E-02
        2   -1    0    0  500    0  0.00000000000E+00  0.00000000000E+00  3.27519870240E+03  3.27519870240E+03  0.00000000000E+00  0.0000E+00  9.0
       -2   -1    0    0    0  500  0.00000000000E+00  0.00000000000E+00 -7.61545090090E+01  7.61545090090E+01  0.00000000000E+00  0.0000E+00  9.0
       13    1    1    2    0    0 -3.36224219750E+02 -1.38434394900E+01  2.83770457020E+03  2.85758737498E+03  1.05700000000E-01  0.0000E+00  9.0
      -13    1    1    2    0    0  3.36224219750E+02  1.38434394900E+01  3.61339623220E+02  4.93765836449E+02  1.05700000000E-01  0.0000E+00  9.0
</event>
<event>
 4    1   7.6478753E-02   1.0020000E+03  -1.0000000E+00   9.4080000E-02
        2   -1    0    0  500    0  0.00000000000E+00  0.00000000000E+00  1.90633130210E+03  1.90633130210E+03  0.00000000000E+00  0.0000E+00  9.0
       -2   -1    0    0    0  500  0.00000000000E+00  0.00000000000E+00 -1.31536741770E+02  1.31536741770E+02  0.00000000000E+00  0.0000E+00  9.0
       13    1    1    2    0    0  4.35819392190E+02  1.14689625880E+02  1.33162118050E+03  1.40581194774E+03  1.05700000000E-01  0.0000E+00  9.0
      -13    1    1    2    0    0 -4.35819392190E+02 -1.14689625880E+02  4.43173379830E+02  6.32056096131E+02  1.05700000000E-01  0.0000E+00  9.0
</event>
<event>
 4    1   7.6478753E-02   1.0160000E+03  -1.0000000E+00   9.3920000E-02
       -1   -1    0    0    0  500  0.00000000000E+00  0.00000000000E+00  7.78114945560E+02  7.78114945560E+02  0.00000000000E+00  0.0000E+00  9.0
        1   -1    0    0  500    0  0.00000000000E+00  0.00000000000E+00 -3.31911755030E+02  3.31911755030E+02  0.00000000000E+00  0.0000E+00  9.0
       13    1    1    2    0    0 -3.81673263310E+02 -3.35238942320E+02  2.38771044820E+02  5.61312080211E+02  1.05700000000E-01  0.0000E+00  9.0
      -13    1    1    2    0    0  3.81673263310E+02  3.35238942320E+02  2.07432145710E+02  5.48714620381E+02  1.05700000000E-01  0.0000E+00  9.0
</event>
<event>
 4    1   7.6478753E-02   1.0020000E+03  -1.0000000E+00   9.4080000E-02
        2   -1    0    0  500    0  0.00000000000E+00  0.00000000000E+00  2.88626411030E+02  2.88626411030E+02  0.00000000000E+00  0.0000E+00  9.0
       -2   -1    0    0    0  500  0.00000000000E+00  0.00000000000E+00 -8.69211116020E+02  8.69211116020E+02  0.00000000000E+00  0.0000E+00  9.0
       13    1    1    2    0    0  1.43883454020E+02 -4.51859222140E+02 -4.76654411020E+02  6.72367937733E+02  1.05700000000E-01  0.0000E+00  9.0
      -13    1    1    2    0    0 -1.43883454020E+02  4.51859222140E+02 -1.03930293970E+02  4.85469589316E+02  1.05700000000E-01  0.0000E+00  9.0
</event>
<event>
 4    1   7.6478753E-02   9.9790000E+02  -1.0000000E+00   9.4120000E-02
       -1   -1    0    0    0  500  0.00000000000E+00  0.00000000000E+00  4.27855543180E+02  4.27855543180E+02  0.00000000000E+00  0.0000E+00  9.0
        1   -1    0    0  500    0  0.00000000000E+00  0.00000000000E+00 -5.81870716050E+02  5.81870716050E+02  0.00000000000E+00  0.0000E+00  9.0
       13    1    1    2    0    0  1.42168062940E+02 -1.67194918920E+01  4.06632118430E+02  4.31092786347E+02  1.05700000000E-01  0.0000E+00  9.0
      -13    1    1    2    0    0 -1.42168062940E+02  1.67194918920E+01 -5.60647291300E+02  5.78633472886E+02  1.05700000000E-01  0.0000E+00  9.0
</event>
<event>
 4    1   7.6478753E-02   1.0070000E+03  -1.0000000E+00   9.4020000E-02
       -1   -1    0    0    0  500  0.00000000000E+00  0.00000000000E+00  1.21739955860E+02  1.21739955860E+02  0.00000000000E+00  0.0000E+00  9.0
        1   -1    0    0  500    0  0.00000000000E+00  0.00000000000E+00 -2.08261241810E+03  2.08261241810E+03  0.00000000000E+00  0.0000E+00  9.0
       13    1    1    2    0    0 -2.73064994420E+02 -3.66559965110E+02 -1.44274164270E+03  1.51341803807E+03  1.05700000000E-01  0.0000E+00  9.0
      -13    1    1    2    0    0  2.73064994420E+02  3.66559965110E+02 -5.18130819570E+02  6.90934335925E+02  1.05700000000E-01  0.0000E+00  9.0
</event>
<event>
 4    1   7.6478753E-02   1.0010000E+03  -1.0000000E+00   9.4090000E-02
       -2   -1    0    0    0  500  0.00000000000E+00  0.00000000000E+00  3.62701817360E+02  3.62701817360E+02  0.00000000000E+00  0.0000E+00  9.0
        2   -1    0    0  500    0  0.00000000000E+00  0.00000000000E+00 -6.90563158930E+02  6.90563158930E+02  0.00000000000E+00  0.0000E+00  9.0
       13    1    1    2    0    0  2.85454671320E+02  4.09486987840E+02 -1.25924019160E+02  5.14801740831E+02  1.05700000000E-01  0.0000E+00  9.0
      -13    1    1    2    0    0 -2.85454671320E+02 -4.09486987840E+02 -2.01937322410E+02  5.38463235461E+02  1.05700000000E-01  0.0000E+00  9.0
</event>
<event>
 4    1   7.6478753E-02   9.9950000E+02  -1.0000000E+00   9.4100000E-02
       -1   -1    0    0    0  500  0.00000000000E+00  0.00000000000E+00  5.07945287800E+02  5.07945287800E+02  0.00000000000E+00  0.0000E+00  9.0
        1   -1    0    0  500    0  0.00000000000E+00  0.00000000000E+00 -4.91708298030E+02  4.91708298030E+02  0.00000000000E+00  0.0000E+00  9.0
       13    1    1    2    0    0  1.38333664990E+02 -3.46839504210E+02 -3.24080499220E+02  4.94431012071E+02  1.05700000000E-01  0.0000E+00  9.0
      -13    1    1    2    0    0 -1.38333664990E+02  3.46839504210E+02  3.40317488990E+02  5.05222573758E+02  1.05700000000E-01  0.0000E+00  9.0
</event>
<event>
 4    1   7.6478753E-02   1.0020000E+03  -1.0000000E+00   9.4080000E-02
        1   -1    0    0  500    0  0.00000000000E+00  0.00000000000E+00  9.29134399230E+02  9.29134399230E+02  0.00000000000E+00  0.0000E+00  9.0
       -1   -1    0    0    0  500  0.00000000000E+00  0.00000000000E+00 -2.69963211100E+02  2.69963211100E+02  0.00000000000E+00  0.0000E+00  9.0
       13    1    1    2    0    0  4.72804017760E+02 -1.59430683510E+02  2.77814171940E+02  5.71088878685E+02  1.05700000000E-01  0.0000E+00  9.0
      -13    1    1    2    0    0 -4.72804017760E+02  1.59430683510E+02  3.81357016180E+02  6.28008731640E+02  1.05700000000E-01  0.0000E+00  9.0
</event>
<event>
 4    1   7.6478753E-02   9.9650000E+02  -1.0000000E+00   9.4140000E-02
       -2   -1    0    0    0  500  0.00000000000E+00  0.00000000000E+00  5.00424948010E+02  5.00424948010E+02  0.00000000000E+00  0.0000E+00  9.0
        2   -1    0    0  500    0  0.00000000000E+00  0.00000000000E+00 -4.96102519220E+02  4.96102519220E+02  0.00000000000E+00  0.0000E+00  9.0
       13    1    1    2    0    0 -2.69363483350E+02  6.84273232950E+01 -4.11392045940E+02  4.96469950119E+02  1.05700000000E-01  0.0000E+00  9.0
      -13    1    1    2    0    0  2.69363483350E+02 -6.84273232950E+01  4.15714474730E+02  5.00057517100E+02  1.05700000000E-01  0.0000E+00  9.0
</event>
<event>
 4    1   7.6478753E-02   9.9920000E+02  -1.0000000E+00   9.4110000E-02
        1   -1    0    0  500    0  0.00000000000E+00  0.00000000000E+00  2.57990904100E+03  2.57990904100E+03  0.00000000000E+00  0.0000E+00  9.0
       -1   -1    0    0    0  500  0.00000000000E+00  0.00000000000E+00 -9.67526187820E+01  9.67526187820E+01  0.00000000000E+00  0.0000E+00  9.0
       13    1    1    2    0    0  1.95342342410E+02  5.57094749860E+01  2.46429950100E+03  2.47265731919E+03  1.05700000000E-01  0.0000E+00  9.0
      -13    1    1    2    0    0 -1.95342342410E+02 -5.57094749860E+01  1.88569212550E+01  2.04004340623E+02  1.05700000000E-01  0.0000E+00  9.0
</event>
<event>
 4    1   7.6478753E-02   9.9880000E+02  -1.0000000E+00   9.4110000E-02
        1   -1    0    0  500    0  0.00000000000E+00  0.00000000000E+00  2.51587435050E+03  2.51587435050E+03  0.00000000000E+00  0.0000E+00  9.0
       -1   -1    0    0    0  500  0.00000000000E+00  0.00000000000E+00 -9.91250112050E+01  9.91250112050E+01  0.00000000000E+00  0.0000E+00  9.0
       13    1    1    2    0    0  3.74606891950E+02 -2.01480043890E+02  5.23314378510E+02  6.74375623455E+02  1.05700000000E-01  0.0000E+00  9.0
      -13    1    1    2    0    0 -3.74606891950E+02  2.01480043890E+02  1.89343496080E+03  1.94062373827E+03  1.05700000000E-01  0.0000E+00  9.0
</event>
<event>
 4    1   7.6478753E-02   9.9670000E+02  -1.0000000E+00   9.4130000E-02
       -1   -1    0    0    0  500  0.00000000000E+00  0.00000000000E+00  8.11693761110E+01  8.11693761110E+01  0.00000000000E+00  0.0000E+00  9.0
        1   -1    0    0  500    0  0.00000000000E+00  0.00000000000E+00 -3.05966989760E+03  3.05966989760E+03  0.00000000000E+00  0.0000E+00  9.0
       13    1    1    2    0    0  4.38055399440E+02 -2.36967900220E+02 -1.43420106550E+03  1.51821573769E+03  1.05700000000E-01  0.0000E+00  9.0
      -13    1    1    2    0    0 -4.38055399440E+02  2.36967900220E+02 -1.54429945600E+03  1.62262353603E+03  1.05700000000E-01  0.0000E+00  9.0
</event>
<event>
 4    1   7.6478753E-02   9.9210000E+02  -1.0000000E+00   9.4180000E-02
       -1   -1    0    0    0  500  0.00000000000E+00  0.00000000000E+00  9.25871371510E+01  9.25871371510E+01  0.00000000000E+00  0.0000E+00  9.0
        1   -1    0    0  500    0  0.00000000000E+00  0.00000000000E+00 -2.65764592940E+03  2.65764592940E+03  0.00000000000E+00  0.0000E+00  9.0
       13    1    1    2    0    0  3.27620608850E+02  1.42712337790E+02 -2.23625027480E+03  2.26462301000E+03  1.05700000000E-01  0.0000E+00  9.0
      -13    1    1    2    0    0 -3.27620608850E+02 -1.42712337790E+02 -3.28808517440E+02  4.85610056542E+02  1.05700000000E-01  0.0000E+00  9.0
</event>
<event>
 4    1   7.6478753E-02   1.0010000E+03  -1.0000000E+00   9.4080000E-02
       -1   -1    0    0    0  500  0.00000000000E+00  0.00000000000E+00  1.56557747540E+02  1.56557747540E+02  0.00000000000E+00  0.0000E+00  9.0
        1   -1    0    0  500    0  0.00000000000E+00  0.00000000000E+00 -1.60127855930E+03  1.60127855930E+03  0.00000000000E+00  0.0000E+00  9.0
       13    1    1    2    0    0  3.69074015300E+02  1.50722233110E+02 -1.90614960630E+02  4.41890138736E+02  1.05700000000E-01  0.0000E+00  9.0
      -13    1    1    2    0    0 -3.69074015300E+02 -1.50722233110E+02 -1.25410585110E+03  1.31594616807E+03  1.05700000000E-01  0.0000E+00  9.0
</event>
<event>
 4    1   7.6478753E-02   9.9750000E+02  -1.0000000E+00   9.4120000E-02
        1   -1    0    0  500    0  0.00000000000E+00  0.00000000000E+00  2.21611236870E+02  2.21611236870E+02  0.00000000000E+00  0.0000E+00  9.0
       -1   -1    0    0    0  500  0.00000000000E+00  0.00000000000E+00 -1.12255940430E+03  1.12255940430E+03  0.00000000000E+00  0.0000E+00  9.0
       13    1    1    2    0    0  9.08898956270E+00  1.98962655820E+02 -1.06664898760E+03  1.08508470732E+03  1.05700000000E-01  0.0000E+00  9.0
      -13    1    1    2    0    0 -9.08898956270E+00 -1.98962655820E+02  1.65700820170E+02  2.59085933852E+02  1.05700000000E-01  0.0000E+00  9.0
</event>
<event>
 4    1   7.6478753E-02   1.0000000E+03  -1.0000000E+00   9.4100000E-02
        1   -1    0    0  500    0  0.00000000000E+00  0.00000000000E+00  1.05612754990E+03  1.05612754990E+03  0.00000000000E+00  0.0000E+00  9.0
       -1   -1    0    0    0  500  0.00000000000E+00  0.00000000000E+00 -2.36742025630E+02  2.36742025630E+02  0.00000000000E+00  0.0000E+00  9.0
       13    1    1    2    0    0  1.15784938130E+02  9.97296967940E+01  1.02519999010E+03  1.03652650482E+03  1.05700000000E-01  0.0000E+00  9.0
      -13    1    1    2    0    0 -1.15784938130E+02 -9.97296967940E+01 -2.05814465900E+02  2.56343070643E+02  1.05700000000E-01  0.0000E+00  9.0
</event>
<event>
 4    1   7.6478753E-02   9.2350000E+02  -1.0000000E+00   9.4960000E-02
       -1   -1    0    0    0  500  0.00000000000E+00  0.00000000000E+00  1.52298534570E+03  1.52298534570E+03  0.00000000000E+00  0.0000E+00  9.0
        1   -1    0    0  500    0  0.00000000000E+00  0.00000000000E+00 -1.40011438200E+02  1.40011438200E+02  0.00000000000E+00  0.0000E+00  9.0
       13    1    1    2    0    0  1.92388961200E+02  2.88971390980E+02  1.43194373260E+02  3.75529781645E+02  1.05700000000E-01  0.0000E+00  9.0
      -13    1    1    2    0    0 -1.92388961200E+02 -2.88971390980E+02  1.23977953420E+03  1.28746700221E+03  1.05700000000E-01  0.0000E+00  9.0
</event>
<event>
 4    1   7.6478753E-02   9.9420000E+02  -1.0000000E+00   9.4160000E-02
       -1   -1    0    0    0  500  0.00000000000E+00  0.00000000000E+00  2.04477200020E+02  2.04477200020E+02  0.00000000000E+00  0.0000E+00  9.0
        1   -1    0    0  500    0  0.00000000000E+00  0.00000000000E+00 -1.20843574110E+03  1.20843574110E+03  0.00000000000E+00  0.0000E+00  9.0
       13    1    1    2    0    0 -2.89467617050E+00  2.85774627150E+02  7.60473676820E+01  2.95734221856E+02  1.05700000000E-01  0.0000E+00  9.0
      -13    1    1    2    0    0  2.89467617050E+00 -2.85774627150E+02 -1.08000590880E+03  1.11717871931E+03  1.05700000000E-01  0.0000E+00  9.0
</event>
<event>
 4    1   7.6478753E-02   9.9930000E+02  -1.0000000E+00   9.4100000E-02
       -1   -1    0    0    0  500  0.00000000000E+00  0.00000000000E+00  1.65727452550E+02  1.65727452550E+02  0.00000000000E+00  0.0000E+00  9.0
        1   -1    0    0  500    0  0.00000000000E+00  0.00000000000E+00 -1.50653058120E+03  1.50653058120E+03  0.00000000000E+00  0.0000E+00  9.0
       13    1    1    2    0    0 -4.25793108140E+02  9.04353125410E+01 -2.59849884280E+02  5.06951960472E+02  1.05700000000E-01  0.0000E+00  9.0
      -13    1    1    2    0    0  4.25793108140E+02 -9.04353125410E+01 -1.08095324430E+03  1.16530607320E+03  1.05700000000E-01  0.0000E+00  9.0
</event>
<event>
 4    1   7.6478753E-02   1.0050000E+03  -1.0000000E+00   9.4040000E-02
       -1   -1    0    0    0  500  0.00000000000E+00  0.00000000000E+00  3.30993606440E+02  3.30993606440E+02  0.00000000000E+00  0.0000E+00  9.0
        1   -1    0    0  500    0  0.00000000000E+00  0.00000000000E+00 -7.62721740590E+02  7.62721740590E+02  0.00000000000E+00  0.0000E+00  9.0
       13    1    1    2    0    0  1.00532547910E+02  4.80468013580E+01 -7.49105523270E+02  7.57346937986E+02  1.05700000000E-01  0.0000E+00  9.0
      -13    1    1    2    0    0 -1.00532547910E+02 -4.80468013580E+01  3.17377389120E+02  3.36368409050E+02  1.05700000000E-01  0.0000E+00  9.0
</event>
<event>
 4    1   7.6478753E-02   1.0000000E+03  -1.0000000E+00   9.4100000E-02
       -1   -1    0    0    0  500  0.00000000000E+00  0.00000000000E+00  3.14987154710E+02  3.14987154710E+02  0.00000000000E+00  0.0000E+00  9.0
        1   -1    0    0  500    0  0.00000000000E+00  0.00000000000E+00 -7.93835816850E+02  7.93835816850E+02  0.00000000000E+00  0.0000E+00  9.0
       13    1    1    2    0    0  1.48382845030E+02 -2.28555694320E+02  2.25434534090E+02  3.53660733526E+02  1.05700000000E-01  0.0000E+00  9.0
      -13    1    1    2    0    0 -1.48382845030E+02  2.28555694320E+02 -7.04283196230E+02  7.55162238045E+02  1.05700000000E-01  0.0000E+00  9.0
</event>
<event>
 4    1   7.6478753E-02   9.9850000E+02  -1.0000000E+00   9.4110000E-02
       -2   -1    0    0    0  500  0.00000000000E+00  0.00000000000E+00  1.43824438800E+02  1.43824438800E+02  0.00000000000E+00  0.0000E+00  9.0
        2   -1    0    0  500    0  0.00000000000E+00  0.00000000000E+00 -1.73298801860E+03  1.73298801860E+03  0.00000000000E+00  0.0000E+00  9.0
       13    1    1    2    0    0  2.00882962260E+01 -3.67388492720E+02 -1.42885728860E+03  1.47546975794E+03  1.05700000000E-01  0.0000E+00  9.0
      -13    1    1    2    0    0 -2.00882962260E+01  3.67388492720E+02 -1.60306291160E+02  4.01342699431E+02  1.05700000000E-01  0.0000E+00  9.0
</event>
<event>
 4    1   7.6478753E-02   1.0030000E+03  -1.0000000E+00   9.4070000E-02
       -1   -1    0    0    0  500  0.00000000000E+00  0.00000000000E+00  4.73453130310E+02  4.73453130310E+02  0.00000000000E+00  0.0000E+00  9.0
        1   -1    0    0  500    0  0.00000000000E+00  0.00000000000E+00 -5.31060073970E+02  5.31060073970E+02  0.00000000000E+00  0.0000E+00  9.0
       13    1    1    2    0    0  4.65944524990E+02  1.85199778980E+02 -3.41774567330E+01  5.02564790075E+02  1.05700000000E-01  0.0000E+00  9.0
      -13    1    1    2    0    0 -4.65944524990E+02 -1.85199778980E+02 -2.34294869300E+01  5.01948414215E+02  1.05700000000E-01  0.0000E+00  9.0
</event>
<event>
 4    1   7.6478753E-02   1.0040000E+03  -1.0000000E+00   9.4050000E-02
        1   -1    0    0  500    0  0.00000000000E+00  0.00000000000E+00  3.47141345650E+02  3.47141345650E+02  0.00000000000E+00  0.0000E+00  9.0
       -1   -1    0    0    0  500  0.00000000000E+00  0.00000000000E+00 -7.25939923030E+02  7.25939923030E+02  0.00000000000E+00  0.0000E+00  9.0
       13    1    1    2    0    0 -9.91568629090E+01 -3.69309656420E+02  1.58220975590E+02  4.13830392886E+02  1.05700000000E-01  0.0000E+00  9.0
      -13    1    1    2    0    0  9.91568629090E+01  3.69309656420E+02 -5.37019552970E+02  6.59250875791E+02  1.05700000000E-01  0.0000E+00  9.0
</event>
<event>
 4    1   7.6478753E-02   9.9970000E+02  -1.0000000E+00   9.4100000E-02
       -2   -1    0    0    0  500  0.00000000000E+00  0.00000000000E+00  7.56829399230E+02  7.56829399230E+02  0.00000000000E+00  0.0000E+00  9.0
        2   -1    0    0  500    0  0.00000000000E+00  0.00000000000E+00 -3.30108795040E+02  3.30108795040E+02  0.00000000000E+00  0.0000E+00  9.0
       13    1    1    2    0    0 -9.13230570520E+01 -4.78696437780E+02  9.25489346740E+01  4.96039813699E+02  1.05700000000E-01  0.0000E+00  9.0
      -13    1    1    2    0    0  9.13230570520E+01  4.78696437780E+02  3.34171669510E+02  5.90898380577E+02  1.05700000000E-01  0.0000E+00  9.0
</event>
<event>
 4    1   7.6478753E-02   1.0010000E+03  -1.0000000E+00   9.4080000E-02
       -1   -1    0    0    0  500  0.00000000000E+00  0.00000000000E+00  2.58829943940E+02  2.58829943940E+02  0.00000000000E+00  0.0000E+00  9.0
        1   -1    0    0  500    0  0.00000000000E+00  0.00000000000E+00 -9.68359562280E+02  9.68359562280E+02  0.00000000000E+00  0.0000E+00  9.0
       13    1    1    2    0    0 -1.42505919370E+02  3.86272699180E+02 -5.67607587380E+00  4.11760566588E+02  1.05700000000E-01  0.0000E+00  9.0
      -13    1    1    2    0    0  1.42505919370E+02 -3.86272699180E+02 -7.03853542470E+02  8.15428939643E+02  1.05700000000E-01  0.0000E+00  9.0
</event>
<event>
 4    1   7.6478753E-02   9.9420000E+02  -1.0000000E+00   9.4160000E-02
        3   -1    0    0  500    0  0.00000000000E+00  0.00000000000E+00  9.50527560720E+02  9.50527581761E+02  2.00000000000E-01  0.0000E+00  9.0
       -3   -1    0    0    0  500  0.00000000000E+00  0.00000000000E+00 -2.59947448200E+02  2.59947525139E+02  2.00000000000E-01  0.0000E+00  9.0
       13    1    1    2    0    0  4.24462080780E+02 -1.70204259120E+02  1.08095382210E+02  4.69917195547E+02  1.05700000000E-01  0.0000E+00  9.0
      -13    1    1    2    0    0 -4.24462080780E+02  1.70204259120E+02  5.82484730300E+02  7.40557911340E+02  1.05700000000E-01  0.0000E+00  9.0
</event>
<event>
 4    1   7.6478753E-02   1.0000000E+03  -1.0000000E+00   9.4100000E-02
        2   -1    0    0  500    0  0.00000000000E+00  0.00000000000E+00  1.08846666170E+03  1.08846666170E+03  0.00000000000E+00  0.0000E+00  9.0
       -2   -1    0    0    0  500  0.00000000000E+00  0.00000000000E+00 -2.29724451440E+02  2.29724451440E+02  0.00000000000E+00  0.0000E+00  9.0
       13    1    1    2    0    0  4.62368007770E+02 -1.45999145150E+02  5.90517672970E+02  7.64075296195E+02  1.05700000000E-01  0.0000E+00  9.0
      -13    1    1    2    0    0 -4.62368007770E+02  1.45999145150E+02  2.68224537260E+02  5.54115816914E+02  1.05700000000E-01  0.0000E+00  9.0
</event>
<event>
 4    1   7.6478753E-02   1.0020000E+03  -1.0000000E+00   9.4080000E-02
        2   -1    0    0  500    0  0.00000000000E+00  0.00000000000E+00  2.11625816640E+03  2.11625816640E+03  0.00000000000E+00  0.0000E+00  9.0
       -2   -1    0    0    0  500  0.00000000000E+00  0.00000000000E+00 -1.18521908380E+02  1.18521908380E+02  0.00000000000E+00  0.0000E+00  9.0
       13    1    1    2    0    0 -2.56289429430E+02 -4.15733477290E+02  1.24635404200E+03  1.33862504271E+03  1.05700000000E-01  0.0000E+00  9.0
      -13    1    1    2    0    0  2.56289429430E+02  4.15733477290E+02  7.51382215950E+02  8.96155032009E+02  1.05700000000E-01  0.0000E+00  9.0
</event>
<event>
 4    1   7.6478753E-02   9.9170000E+02  -1.0000000E+00   9.4190000E-02
        1   -1    0    0  500    0  0.00000000000E+00  0.00000000000E+00  7.01726607100E+02  7.01726607100E+02  0.00000000000E+00  0.0000E+00  9.0
       -1   -1    0    0    0  500  0.00000000000E+00  0.00000000000E+00 -3.50357557240E+02  3.50357557240E+02  0.00000000000E+00  0.0000E+00  9.0
       13    1    1    2    0    0  3.72731752790E+02  1.77427989380E+02 -1.15720883700E+02  4.28720171032E+02  1.05700000000E-01  0.0000E+00  9.0
      -13    1    1    2    0    0 -3.72731752790E+02 -1.77427989380E+02  4.67089933560E+02  6.23363993313E+02  1.05700000000E-01  0.0000E+00  9.0
</event>
<event>
 4    1   7.6478753E-02   1.0020000E+03  -1.0000000E+00   9.4080000E-02
       -1   -1    0    0    0  500  0.00000000000E+00  0.00000000000E+00  2.25719366820E+02  2.25719366820E+02  0.00000000000E+00  0.0000E+00  9.0
        1   -1    0    0  500    0  0.00000000000E+00  0.00000000000E+00 -1.11163178220E+03  1.11163178220E+03  0.00000000000E+00  0.0000E+00  9.0
       13    1    1    2    0    0 -1.64863341590E+02 -3.06908661710E+02  3.75059191590E+01  3.50399134099E+02  1.05700000000E-01  0.0000E+00  9.0
      -13    1    1    2    0    0  1.64863341590E+02  3.06908661710E+02 -9.23418334580E+02  9.86952014965E+02  1.05700000000E-01  0.0000E+00  9.0
</event>
<event>
 4    1   7.6478753E-02   9.5660000E+02  -1.0000000E+00   9.4580000E-02
       -2   -1    0    0    0  500  0.00000000000E+00  0.00000000000E+00  3.24661920520E+02  3.24661920520E+02  0.00000000000E+00  0.0000E+00  9.0
        2   -1    0    0  500    0  0.00000000000E+00  0.00000000000E+00 -7.04641229560E+02  7.04641229560E+02  0.00000000000E+00  0.0000E+00  9.0
       13    1    1    2    0    0 -4.17372469360E+02  2.26062148690E+02 -2.53339575710E+02  5.38037940152E+02  1.05700000000E-01  0.0000E+00  9.0
      -13    1    1    2    0    0  4.17372469360E+02 -2.26062148690E+02 -1.26639733340E+02  4.91265209925E+02  1.05700000000E-01  0.0000E+00  9.0
</event>
<event>
 4    1   7.6478753E-02   9.9770000E+02  -1.0000000E+00   9.4120000E-02
        1   -1    0    0  500    0  0.00000000000E+00  0.00000000000E+00  2.67096644790E+02  2.67096644790E+02  0.00000000000E+00  0.0000E+00  9.0
       -1   -1    0    0    0  500  0.00000000000E+00  0.00000000000E+00 -9.31653374260E+02  9.31653374260E+02  0.00000000000E+00  0.0000E+00  9.0
       13    1    1    2    0    0 -2.70563040800E+02 -1.80814607620E+02 -7.86553515650E+02  8.51213677950E+02  1.05700000000E-01  0.0000E+00  9.0
      -13    1    1    2    0    0  2.70563040800E+02  1.80814607620E+02  1.21996786180E+02  3.47536341102E+02  1.05700000000E-01  0.0000E+00  9.0
</event>
<event>
 4    1   7.6478753E-02   1.0630000E+03  -1.0000000E+00   9.3440000E-02
        2   -1    0    0  500    0  0.00000000000E+00  0.00000000000E+00  2.00678454920E+03  2.00678454920E+03  0.00000000000E+00  0.0000E+00  9.0
       -2   -1    0    0    0  500  0.00000000000E+00  0.00000000000E+00 -1.40830277400E+02  1.40830277400E+02  0.00000000000E+00  0.0000E+00  9.0
       13    1    1    2    0    0  1.27466105260E+02 -1.85210681370E+02  1.90602277720E+03  1.91923772443E+03  1.05700000000E-01  0.0000E+00  9.0
      -13    1    1    2    0    0 -1.27466105260E+02  1.85210681370E+02 -4.00685054210E+01  2.28377102142E+02  1.05700000000E-01  0.0000E+00  9.0
</event>
<event>
 4    1   7.6478753E-02   1.0100000E+03  -1.0000000E+00   9.3990000E-02
        2   -1    0    0  500    0  0.00000000000E+00  0.00000000000E+00  2.61086796670E+03  2.61086796670E+03  0.00000000000E+00  0.0000E+00  9.0
       -2   -1    0    0    0  500  0.00000000000E+00  0.00000000000E+00 -9.76763604310E+01  9.76763604310E+01  0.00000000000E+00  0.0000E+00  9.0
       13    1    1    2    0    0 -2.28083894170E+02 -1.00836033940E+02  7.89736917200E+01  2.61585595316E+02  1.05700000000E-01  0.0000E+00  9.0
      -13    1    1    2    0    0  2.28083894170E+02  1.00836033940E+02  2.43421791450E+03  2.44695873177E+03  1.05700000000E-01  0.0000E+00  9.0
</event>
<event>
 4    1   7.6478753E-02   1.0010000E+03  -1.0000000E+00   9.4080000E-02
       -1   -1    0    0    0  500  0.00000000000E+00  0.00000000000E+00  8.38185166450E+02  8.38185166450E+02  0.00000000000E+00  0.0000E+00  9.0
        1   -1    0    0  500    0  0.00000000000E+00  0.00000000000E+00 -2.98970323830E+02  2.98970323830E+02  0.00000000000E+00  0.0000E+00  9.0
       13    1    1    2    0    0 -3.92931841670E+02 -3.61066569540E+01 -8.02762984230E+01  4.02670359147E+02  1.05700000000E-01  0.0000E+00  9.0
      -13    1    1    2    0    0  3.92931841670E+02  3.61066569540E+01  6.19491141040E+02  7.34485131146E+02  1.05700000000E-01  0.0000E+00  9.0
</event>
<event>
 4    1   7.6478753E-02   1.0090000E+03  -1.0000000E+00   9.4000000E-02
        1   -1    0    0  500    0  0.00000000000E+00  0.00000000000E+00  1.94875517310E+03  1.94875517310E+03  0.00000000000E+00  0.0000E+00  9.0
       -1   -1    0    0    0  500  0.00000000000E+00  0.00000000000E+00 -1.30639567100E+02  1.30639567100E+02  0.00000000000E+00  0.0000E+00  9.0
       13    1    1    2    0    0  7.82076138120E+01  1.21807909900E+02  1.90505037890E+03  1.91054195324E+03  1.05700000000E-01  0.0000E+00  9.0
      -13    1    1    2    0    0 -7.82076138120E+01 -1.21807909900E+02 -8.69347728610E+01  1.68852786999E+02  1.05700000000E-01  0.0000E+00  9.0
</event>
<event>
 4    1   7.6478753E-02   9.9810000E+02  -1.0000000E+00   9.4120000E-02
       -1   -1    0    0    0  500  0.00000000000E+00  0.00000000000E+00  2.42049630870E+02  2.42049630870E+02  0.00000000000E+00  0.0000E+00  9.0
        1   -1    0    0  500    0  0.00000000000E+00  0.00000000000E+00 -1.02897069780E+03  1.02897069780E+03  0.00000000000E+00  0.0000E+00  9.0
       13    1    1    2    0    0  2.50394926680E+02  4.25713392970E+02 -3.02231867550E+02  5.79028173059E+02  1.05700000000E-01  0.0000E+00  9.0
      -13    1    1    2    0    0 -2.50394926680E+02 -4.25713392970E+02 -4.84689199340E+02  6.91992155584E+02  1.05700000000E-01  0.0000E+00  9.0
</event>
<event>
 4    1   7.6478753E-02   9.9880000E+02  -1.0000000E+00   9.4110000E-02
       -1   -1    0    0    0  500  0.00000000000E+00  0.00000000000E+00  6.61285085470E+02  6.61285085470E+02  0.00000000000E+00  0.0000E+00  9.0
        1   -1    0    0  500    0  0.00000000000E+00  0.00000000000E+00 -3.77167240500E+02  3.77167240500E+02  0.00000000000E+00  0.0000E+00  9.0
       13    1    1    2    0    0  3.93393046490E+01  1.64035736590E+02  6.30769582790E+02  6.52936123610E+02  1.05700000000E-01  0.0000E+00  9.0
      -13    1    1    2    0    0 -3.93393046490E+01 -1.64035736590E+02 -3.46651737820E+02  3.85516202351E+02  1.05700000000E-01  0.0000E+00  9.0
</event>
<event>
 4    1   7.6478753E-02   1.0010000E+03  -1.0000000E+00   9.4090000E-02
       -2   -1    0    0    0  500  0.00000000000E+00  0.00000000000E+00  1.32965978590E+02  1.32965978590E+02  0.00000000000E+00  0.0000E+00  9.0
        2   -1    0    0  500    0  0.00000000000E+00  0.00000000000E+00 -1.88309717700E+03  1.88309717700E+03  0.00000000000E+00  0.0000E+00  9.0
       13    1    1    2    0    0  3.06538459200E+02  3.74148453240E+02 -6.16808794790E+02  7.83840540246E+02  1.05700000000E-01  0.0000E+00  9.0
      -13    1    1    2    0    0 -3.06538459200E+02 -3.74148453240E+02 -1.13332240360E+03  1.23222261532E+03  1.05700000000E-01  0.0000E+00  9.0
</event>
<event>
 4    1   7.6478753E-02   9.9870000E+02  -1.0000000E+00   9.4110000E-02
        1   -1    0    0  500    0  0.00000000000E+00  0.00000000000E+00  2.03524296190E+03  2.03524296190E+03  0.00000000000E+00  0.0000E+00  9.0
       -1   -1    0    0    0  500  0.00000000000E+00  0.00000000000E+00 -1.22520398780E+02  1.22520398780E+02  0.00000000000E+00  0.0000E+00  9.0
       13    1    1    2    0    0  1.27395732640E+02  5.95109215790E+01 -7.88658599820E+01  1.61217423144E+02  1.05700000000E-01  0.0000E+00  9.0
      -13    1    1    2    0    0 -1.27395732640E+02 -5.95109215790E+01  1.99158842310E+03  1.99654593753E+03  1.05700000000E-01  0.0000E+00  9.0
</event>
<event>
 4    1   7.6478753E-02   1.0040000E+03  -1.0000000E+00   9.4060000E-02
       -2   -1    0    0    0  500  0.00000000000E+00  0.00000000000E+00  9.48251510480E+01  9.48251510480E+01  0.00000000000E+00  0.0000E+00  9.0
        2   -1    0    0  500    0  0.00000000000E+00  0.00000000000E+00 -2.65544657140E+03  2.65544657140E+03  0.00000000000E+00  0.0000E+00  9.0
       13    1    1    2    0    0 -4.04135266130E+02 -1.00336650730E+02 -5.12946110240E+02  6.60686370370E+02  1.05700000000E-01  0.0000E+00  9.0
      -13    1    1    2    0    0  4.04135266130E+02  1.00336650730E+02 -2.04767531010E+03  2.08958535207E+03  1.05700000000E-01  0.0000E+00  9.0
</event>
<event>
 4    1   7.6478753E-02   1.0150000E+03  -1.0000000E+00   9.3930000E-02
       -2   -1    0    0    0  500  0.00000000000E+00  0.00000000000E+00  2.66229353650E+02  2.66229353650E+02  0.00000000000E+00  0.0000E+00  9.0
        2   -1    0    0  500    0  0.00000000000E+00  0.00000000000E+00 -9.68230836030E+02  9.68230836030E+02  0.00000000000E+00  0.0000E+00  9.0
       13    1    1    2    0    0 -3.65825627140E+02  5.26386332360E+01  7.21852117690E+01  3.76576594004E+02  1.05700000000E-01  0.0000E+00  9.0
      -13    1    1    2    0    0  3.65825627140E+02 -5.26386332360E+01 -7.74186694150E+02  8.57883595689E+02  1.05700000000E-01  0.0000E+00  9.0
</event>
<event>
 4    1   7.6478753E-02   1.0110000E+03  -1.0000000E+00   9.3980000E-02
       -1   -1    0    0    0  500  0.00000000000E+00  0.00000000000E+00  2.92030381990E+02  2.92030381990E+02  0.00000000000E+00  0.0000E+00  9.0
        1   -1    0    0  500    0  0.00000000000E+00  0.00000000000E+00 -8.75733521240E+02  8.75733521240E+02  0.00000000000E+00  0.0000E+00  9.0
       13    1    1    2    0    0 -3.35594797250E+02 -9.86723450600E+01  1.29817276740E+02  3.73112095936E+02  1.05700000000E-01  0.0000E+00  9.0
      -13    1    1    2    0    0  3.35594797250E+02  9.86723450600E+01 -7.13520415990E+02  7.94651807289E+02  1.05700000000E-01  0.0000E+00  9.0
</event>
<event>
 4    1   7.6478753E-02   1.0210000E+03  -1.0000000E+00   9.3870000E-02
       -1   -1    0    0    0  500  0.00000000000E+00  0.00000000000E+00  7.53284957800E+02  7.53284957800E+02  0.00000000000E+00  0.0000E+00  9.0
        1   -1    0    0  500    0  0.00000000000E+00  0.00000000000E+00 -3.46013150480E+02  3.46013150480E+02  0.00000000000E+00  0.0000E+00  9.0
       13    1    1    2    0    0 -3.22959880910E+02 -2.24555558680E+02  5.54020370170E+02  6.79460716559E+02  1.05700000000E-01  0.0000E+00  9.0
      -13    1    1    2    0    0  3.22959880910E+02  2.24555558680E+02 -1.46748562840E+02  4.19837391712E+02  1.05700000000E-01  0.0000E+00  9.0
</event>
<event>
 4    1   7.6478753E-02   9.9320000E+02  -1.0000000E+00   9.4170000E-02
        1   -1    0    0  500    0  0.00000000000E+00  0.00000000000E+00  5.49141131230E+02  5.49141131230E+02  0.00000000000E+00  0.0000E+00  9.0
       -1   -1    0    0    0  500  0.00000000000E+00  0.00000000000E+00 -4.49112734250E+02  4.49112734250E+02  0.00000000000E+00  0.0000E+00  9.0
       13    1    1    2    0    0  2.71706714480E+00 -5.04853314920E+01 -4.46519392170E+02  4.49372595856E+02  1.05700000000E-01  0.0000E+00  9.0
      -13    1    1    2    0    0 -2.71706714480E+00  5.04853314920E+01  5.46547789150E+02  5.48881269627E+02  1.05700000000E-01  0.0000E+00  9.0
</event>
<event>
 4    1   7.6478753E-02   9.9760000E+02  -1.0000000E+00   9.4120000E-02
        1   -1    0    0  500    0  0.00000000000E+00  0.00000000000E+00  5.28135276300E+02  5.28135276300E+02  0.00000000000E+00  0.0000E+00  9.0
       -1   -1    0    0    0  500  0.00000000000E+00  0.00000000000E+00 -4.71070581890E+02  4.71070581890E+02  0.00000000000E+00  0.0000E+00  9.0
       13    1    1    2    0    0  3.49743799910E+02  7.74830793830E+01 -3.19115197830E+02  4.79748761150E+02  1.05700000000E-01  0.0000E+00  9.0
      -13    1    1    2    0    0 -3.49743799910E+02 -7.74830793830E+01  3.76179892240E+02  5.19457097039E+02  1.05700000000E-01  0.0000E+00  9.0
</event>
<event>
 4    1   7.6478753E-02   1.0020000E+03  -1.0000000E+00   9.4070000E-02
        5   -1    0    0  500    0  0.00000000000E+00  0.00000000000E+00  7.67005327430E+02  7.67017380707E+02  4.30000000000E+00  0.0000E+00  9.0
       -5   -1    0    0    0  500  0.00000000000E+00  0.00000000000E+00 -3.27280860430E+02  3.27309107120E+02  4.30000000000E+00  0.0000E+00  9.0
       13    1    1    2    0    0  4.72019017400E+02  3.46826461150E+01  4.02777939620E+01  4.75002263771E+02  1.05700000000E-01  0.0000E+00  9.0
      -13    1    1    2    0    0 -4.72019017400E+02 -3.46826461150E+01  3.99446673040E+02  6.19324224057E+02  1.05700000000E-01  0.0000E+00  9.0
</event>
<event>
 4    1   7.6478753E-02   9.9820000E+02  -1.0000000E+00   9.4120000E-02
        2   -1    0    0  500    0  0.00000000000E+00  0.00000000000E+00  2.04740647340E+03  2.04740647340E+03  0.00000000000E+00  0.0000E+00  9.0
       -2   -1    0    0    0  500  0.00000000000E+00  0.00000000000E+00 -1.21655942840E+02  1.21655942840E+02  0.00000000000E+00  0.0000E+00  9.0
       13    1    1    2    0    0  2.40398803440E+02 -9.50643785140E+01  3.51753469220E+01  2.60894877223E+02  1.05700000000E-01  0.0000E+00  9.0
      -13    1    1    2    0    0 -2.40398803440E+02  9.50643785140E+01  1.89057518360E+03  1.90816753897E+03  1.05700000000E-01  0.0000E+00  9.0
</event>
<event>
 4    1   7.6478753E-02   1.0030000E+03  -1.0000000E+00   9.4060000E-02
        1   -1    0    0  500    0  0.00000000000E+00  0.00000000000E+00  3.20945995950E+02  3.20945995950E+02  0.00000000000E+00  0.0000E+00  9.0
       -1   -1    0    0    0  500  0.00000000000E+00  0.00000000000E+00 -7.83679966340E+02  7.83679966340E+02  0.00000000000E+00  0.0000E+00  9.0
       13    1    1    2    0    0 -1.64342129080E+02 -3.21380128740E+02  1.52072413180E+02  3.91688080700E+02  1.05700000000E-01  0.0000E+00  9.0
      -13    1    1    2    0    0  1.64342129080E+02  3.21380128740E+02 -6.14806383580E+02  7.12937881588E+02  1.05700000000E-01  0.0000E+00  9.0
</event>
<event>
 4    1   7.6478753E-02   9.9330000E+02  -1.0000000E+00   9.4170000E-02
        2   -1    0    0  500    0  0.00000000000E+00  0.00000000000E+00  1.38493914350E+03  1.38493914350E+03  0.00000000000E+00  0.0000E+00  9.0
       -2   -1    0    0    0  500  0.00000000000E+00  0.00000000000E+00 -1.78098748560E+02  1.78098748560E+02  0.00000000000E+00  0.0000E+00  9.0
       13    1    1    2    0    0 -2.75083109140E+02 -1.94726797250E+02  1.17744199430E+03  1.22472809375E+03  1.05700000000E-01  0.0000E+00  9.0
      -13    1    1    2    0    0  2.75083109140E+02  1.94726797250E+02  2.93984006340E+01  3.38309798312E+02  1.05700000000E-01  0.0000E+00  9.0
</event>
<event>
 4    1   7.6478753E-02   1.0020000E+03  -1.0000000E+00   9.4070000E-02
       -1   -1    0    0    0  500  0.00000000000E+00  0.00000000000E+00  2.61545010870E+02  2.61545010870E+02  0.00000000000E+00  0.0000E+00  9.0
        1   -1    0    0  500    0  0.00000000000E+00  0.00000000000E+00 -9.59952750340E+02  9.59952750340E+02  0.00000000000E+00  0.0000E+00  9.0
       13    1    1    2    0    0 -5.76070013140E+01  7.75605002820E+01 -9.48492136520E+02  9.53399990569E+02  1.05700000000E-01  0.0000E+00  9.0
      -13    1    1    2    0    0  5.76070013140E+01 -7.75605002820E+01  2.50084397050E+02  2.68097770645E+02  1.05700000000E-01  0.0000E+00  9.0
</event>
<event>
 4    1   7.6478753E-02   1.0050000E+03  -1.0000000E+00   9.4050000E-02
       -2   -1    0    0    0  500  0.00000000000E+00  0.00000000000E+00  6.46661120880E+01  6.46661120880E+01  0.00000000000E+00  0.0000E+00  9.0
        2   -1    0    0  500    0  0.00000000000E+00  0.00000000000E+00 -3.90313901800E+03  3.90313901800E+03  0.00000000000E+00  0.0000E+00  9.0
       13    1    1    2    0    0  6.24077758950E+01 -1.91864171300E+02 -3.73612989470E+03  3.74157362509E+03  1.05700000000E-01  0.0000E+00  9.0
      -13    1    1    2    0    0 -6.24077758950E+01  1.91864171300E+02 -1.02343011140E+02  2.26231504929E+02  1.05700000000E-01  0.0000E+00  9.0
</event>
<event>
 4    1   7.6478753E-02   9.9830000E+02  -1.0000000E+00   9.4120000E-02
       -1   -1    0    0    0  500  0.00000000000E+00  0.00000000000E+00  1.17385038860E+03  1.17385038860E+03  0.00000000000E+00  0.0000E+00  9.0
        1   -1    0    0  500    0  0.00000000000E+00  0.00000000000E+00 -2.12259406090E+02  2.12259406090E+02  0.00000000000E+00  0.0000E+00  9.0
       13    1    1    2    0    0  3.35616143380E+02  2.60446274810E+02  8.44690041750E+02  9.45500785597E+02  1.05700000000E-01  0.0000E+00  9.0
      -13    1    1    2    0    0 -3.35616143380E+02 -2.60446274810E+02  1.16900940730E+02  4.40609009072E+02  1.05700000000E-01  0.0000E+00  9.0
</event>
<event>
 4    1   7.6478753E-02   9.9990000E+02  -1.0000000E+00   9.4100000E-02
       -2   -1    0    0    0  500  0.00000000000E+00  0.00000000000E+00  1.49633649120E+02  1.49633649120E+02  0.00000000000E+00  0.0000E+00  9.0
        2   -1    0    0  500    0  0.00000000000E+00  0.00000000000E+00 -1.67045479630E+03  1.67045479630E+03  0.00000000000E+00  0.0000E+00  9.0
       13    1    1    2    0    0  3.44065774150E+01 -6.77954092010E+01 -1.65987122650E+03  1.66161142564E+03  1.05700000000E-01  0.0000E+00  9.0
      -13    1    1    2    0    0 -3.44065774150E+01  6.77954092010E+01  1.39050079300E+02  1.58477019798E+02  1.05700000000E-01  0.0000E+00  9.0
</event>
<event>
 4    1   7.6478753E-02   1.2000000E+03  -1.0000000E+00   9.2170000E-02
       -2   -1    0    0    0  500  0.00000000000E+00  0.00000000000E+00  4.80783444490E+02  4.80783444490E+02  0.00000000000E+00  0.0000E+00  9.0
        2   -1    0    0  500    0  0.00000000000E+00  0.00000000000E+00 -7.49116611420E+02  7.49116611420E+02  0.00000000000E+00  0.0000E+00  9.0
       13    1    1    2    0    0 -3.21903747220E+02  4.08900890970E+02 -4.40444372160E+02  6.81772115336E+02  1.05700000000E-01  0.0000E+00  9.0
      -13    1    1    2    0    0  3.21903747220E+02 -4.08900890970E+02  1.72111205230E+02  5.48127940584E+02  1.05700000000E-01  0.0000E+00  9.0
</event>
<event>
 4    1   7.6478753E-02   1.0030000E+03  -1.0000000E+00   9.4070000E-02
        1   -1    0    0  500    0  0.00000000000E+00  0.00000000000E+00  1.99246456610E+03  1.99246456610E+03  0.00000000000E+00  0.0000E+00  9.0
       -1   -1    0    0    0  500  0.00000000000E+00  0.00000000000E+00 -1.26136951750E+02  1.26136951750E+02  0.00000000000E+00  0.0000E+00  9.0
       13    1    1    2    0    0 -3.82929745980E+02  1.10340070760E+02  1.57585868680E+03  1.62546631263E+03  1.05700000000E-01  0.0000E+00  9.0
      -13    1    1    2    0    0  3.82929745980E+02 -1.10340070760E+02  2.90468927560E+02  4.93135205215E+02  1.05700000000E-01  0.0000E+00  9.0
</event>
<event>
 4    1   7.6478753E-02   9.9910000E+02  -1.0000000E+00   9.4110000E-02
       -1   -1    0    0    0  500  0.00000000000E+00  0.00000000000E+00  6.33986576850E+02  6.33986576850E+02  0.00000000000E+00  0.0000E+00  9.0
        1   -1    0    0  500    0  0.00000000000E+00  0.00000000000E+00 -3.93640978050E+02  3.93640978050E+02  0.00000000000E+00  0.0000E+00  9.0
       13    1    1    2    0    0  1.72748286580E+02 -8.58596202360E+01  5.94131956440E+02  6.24665220529E+02  1.05700000000E-01  0.0000E+00  9.0
      -13    1    1    2    0    0 -1.72748286580E+02  8.58596202360E+01 -3.53786357630E+02  4.02962334370E+02  1.05700000000E-01  0.0000E+00  9.0
</event>
<event>
 4    1   7.6478753E-02   1.0020000E+03  -1.0000000E+00   9.4070000E-02
        2   -1    0    0  500    0  0.00000000000E+00  0.00000000000E+00  2.45889933980E+02  2.45889933980E+02  0.00000000000E+00  0.0000E+00  9.0
       -2   -1    0    0    0  500  0.00000000000E+00  0.00000000000E+00 -1.02137410940E+03  1.02137410940E+03  0.00000000000E+00  0.0000E+00  9.0
       13    1    1    2    0    0 -2.80710290880E+02 -3.79999464950E+02 -5.99114191230E+02  7.62978168806E+02  1.05700000000E-01  0.0000E+00  9.0
      -13    1    1    2    0    0  2.80710290880E+02  3.79999464950E+02 -1.76369984140E+02  5.04285874526E+02  1.05700000000E-01  0.0000E+00  9.0
</event>
<event>
 4    1   7.6478753E-02   1.0010000E+03  -1.0000000E+00   9.4090000E-02
       -1   -1    0    0    0  500  0.00000000000E+00  0.00000000000E+00  2.87209266280E+02  2.87209266280E+02  0.00000000000E+00  0.0000E+00  9.0
        1   -1    0    0  500    0  0.00000000000E+00  0.00000000000E+00 -8.71404340140E+02  8.71404340140E+02  0.00000000000E+00  0.0000E+00  9.0
       13    1    1    2    0    0  1.53795428230E+02 -2.77334014300E+02 -7.40143265270E+02  8.05220003185E+02  1.05700000000E-01  0.0000E+00  9.0
      -13    1    1    2    0    0 -1.53795428230E+02  2.77334014300E+02  1.55948191410E+02  3.53393603237E+02  1.05700000000E-01  0.0000E+00  9.0
</event>
<event>
 4    1   7.6478753E-02   9.9780000E+02  -1.0000000E+00   9.4120000E-02
        1   -1    0    0  500    0  0.00000000000E+00  0.00000000000E+00  1.25235022480E+03  1.25235022480E+03  0.00000000000E+00  0.0000E+00  9.0
       -1   -1    0    0    0  500  0.00000000000E+00  0.00000000000E+00 -1.98733599070E+02  1.98733599070E+02  0.00000000000E+00  0.0000E+00  9.0
       13    1    1    2    0    0  2.07633437180E+02  1.21322860970E+02 -1.08875404590E+02  2.63978684227E+02  1.05700000000E-01  0.0000E+00  9.0
      -13    1    1    2    0    0 -2.07633437180E+02 -1.21322860970E+02  1.16249203030E+03  1.18710513962E+03  1.05700000000E-01  0.0000E+00  9.0
</event>
<event>
 4    1   7.6478753E-02   1.0190000E+03  -1.0000000E+00   9.3900000E-02
       -1   -1    0    0    0  500  0.00000000000E+00  0.00000000000E+00  7.03034387300E+02  7.03034387300E+02  0.00000000000E+00  0.0000E+00  9.0
        1   -1    0    0  500    0  0.00000000000E+00  0.00000000000E+00 -3.69193861180E+02  3.69193861180E+02  0.00000000000E+00  0.0000E+00  9.0
       13    1    1    2    0    0 -8.75483335390E+01 -3.63108026510E+02 -1.97675511850E+02  4.22596460916E+02  1.05700000000E-01  0.0000E+00  9.0
      -13    1    1    2    0    0  8.75483335390E+01  3.63108026510E+02  5.31516037970E+02  6.49631787564E+02  1.05700000000E-01  0.0000E+00  9.0
</event>
<event>
 4    1   7.6478753E-02   9.9940000E+02  -1.0000000E+00   9.4100000E-02
       -1   -1    0    0    0  500  0.00000000000E+00  0.00000000000E+00  1.30866495280E+02  1.30866495280E+02  0.00000000000E+00  0.0000E+00  9.0
        1   -1    0    0  500    0  0.00000000000E+00  0.00000000000E+00 -1.90801464870E+03  1.90801464870E+03  0.00000000000E+00  0.0000E+00  9.0
       13    1    1    2    0    0 -1.53912751160E+02  1.54258082390E+02 -1.80597392530E+03  1.81907298396E+03  1.05700000000E-01  0.0000E+00  9.0
      -13    1    1    2    0    0  1.53912751160E+02 -1.54258082390E+02  2.88257717860E+01  2.19808160094E+02  1.05700000000E-01  0.0000E+00  9.0
</event>
<event>
 4    1   7.6478753E-02   9.9870000E+02  -1.0000000E+00   9.4110000E-02
       -2   -1    0    0    0  500  0.00000000000E+00  0.00000000000E+00  2.93771399200E+02  2.93771399200E+02  0.00000000000E+00  0.0000E+00  9.0
        2   -1    0    0  500    0  0.00000000000E+00  0.00000000000E+00 -8.48717433360E+02  8.48717433360E+02  0.00000000000E+00  0.0000E+00  9.0
       13    1    1    2    0    0 -3.89205825190E+02  2.98723459340E+02 -1.71306371500E+02  5.19675633074E+02  1.05700000000E-01  0.0000E+00  9.0
      -13    1    1    2    0    0  3.89205825190E+02 -2.98723459340E+02 -3.83639662650E+02  6.22813199485E+02  1.05700000000E-01  0.0000E+00  9.0
</event>
<event>
 4    1   7.6478753E-02   1.0000000E+03  -1.0000000E+00   9.4100000E-02
       -2   -1    0    0    0  500  0.00000000000E+00  0.00000000000E+00  9.41059480210E+01  9.41059480210E+01  0.00000000000E+00  0.0000E+00  9.0
        2   -1    0    0  500    0  0.00000000000E+00  0.00000000000E+00 -2.65735223530E+03  2.65735223530E+03  0.00000000000E+00  0.0000E+00  9.0
       13    1    1    2    0    0  2.53882023410E+02  2.56826478850E+01 -9.84858034310E+01  2.73523572774E+02  1.05700000000E-01  0.0000E+00  9.0
      -13    1    1    2    0    0 -2.53882023410E+02 -2.56826478850E+01 -2.46476048380E+03  2.47793461049E+03  1.05700000000E-01  0.0000E+00  9.0
</event>
<event>
 4    1   7.6478753E-02   9.9820000E+02  -1.0000000E+00   9.4120000E-02
        1   -1    0    0  500    0  0.00000000000E+00  0.00000000000E+00  3.82218412580E+02  3.82218412580E+02  0.00000000000E+00  0.0000E+00  9.0
       -1   -1    0    0    0  500  0.00000000000E+00  0.00000000000E+00 -6.51686563430E+02  6.51686563430E+02  0.00000000000E+00  0.0000E+00  9.0
       13    1    1    2    0    0  4.13800390230E+02  8.64589904150E+00  1.54142564170E+02  4.41662151181E+02  1.05700000000E-01  0.0000E+00  9.0
      -13    1    1    2    0    0 -4.13800390230E+02 -8.64589904150E+00 -4.23610715010E+02  5.92242824835E+02  1.05700000000E-01  0.0000E+00  9.0
</event>
<event>
 4    1   7.6478753E-02   1.0020000E+03  -1.0000000E+00   9.4070000E-02
       -1   -1    0    0    0  500  0.00000000000E+00  0.00000000000E+00  2.72364691000E+02  2.72364691000E+02  0.00000000000E+00  0.0000E+00  9.0
        1   -1    0    0  500    0  0.00000000000E+00  0.00000000000E+00 -9.22029399290E+02  9.22029399290E+02  0.00000000000E+00  0.0000E+00  9.0
       13    1    1    2    0    0  3.71952328090E+02 -2.49095476830E+02 -5.93247623490E+02  7.43195697578E+02  1.05700000000E-01  0.0000E+00  9.0
      -13    1    1    2    0    0 -3.71952328090E+02  2.49095476830E+02 -5.64170848020E+01  4.51198392704E+02  1.05700000000E-01  0.0000E+00  9.0
</event>
<event>
 4    1   7.6478753E-02   9.9020000E+02  -1.0000000E+00   9.4200000E-02
        1   -1    0    0  500    0  0.00000000000E+00  0.00000000000E+00  2.10906783460E+03  2.10906783460E+03  0.00000000000E+00  0.0000E+00  9.0
       -1   -1    0    0    0  500  0.00000000000E+00  0.00000000000E+00 -1.16233159310E+02  1.16233159310E+02  0.00000000000E+00  0.0000E+00  9.0
       13    1    1    2    0    0 -1.72337049390E+02 -3.01893722880E+02  2.04115710850E+02  4.03116748716E+02  1.05700000000E-01  0.0000E+00  9.0
      -13    1    1    2    0    0  1.72337049390E+02  3.01893722880E+02  1.78871896440E+03  1.82218424515E+03  1.05700000000E-01  0.0000E+00  9.0
</event>
<event>
 4    1   7.6478753E-02   1.0040000E+03  -1.0000000E+00   9.4060000E-02
       -1   -1    0    0    0  500  0.00000000000E+00  0.00000000000E+00  1.64546063710E+03  1.64546063710E+03  0.00000000000E+00  0.0000E+00  9.0
        1   -1    0    0  500    0  0.00000000000E+00  0.00000000000E+00 -1.53111310930E+02  1.53111310930E+02  0.00000000000E+00  0.0000E+00  9.0
       13    1    1    2    0    0 -6.01738556800E+01  2.74845956040E+02  1.45307992560E+00  2.81359760934E+02  1.05700000000E-01  0.0000E+00  9.0
      -13    1    1    2    0    0  6.01738556800E+01 -2.74845956040E+02  1.49089624620E+03  1.51721218706E+03  1.05700000000E-01  0.0000E+00  9.0
</event>
<event>
 4    1   7.6478753E-02   9.9720000E+02  -1.0000000E+00   9.4130000E-02
       -1   -1    0    0    0  500  0.00000000000E+00  0.00000000000E+00  7.60513975980E+02  7.60513975980E+02  0.00000000000E+00  0.0000E+00  9.0
        1   -1    0    0  500    0  0.00000000000E+00  0.00000000000E+00 -3.26868116800E+02  3.26868116800E+02  0.00000000000E+00  0.0000E+00  9.0
       13    1    1    2    0    0 -1.43386475990E+02 -2.55317700830E+01  7.36800738580E+02  7.51057183126E+02  1.05700000000E-01  0.0000E+00  9.0
      -13    1    1    2    0    0  1.43386475990E+02  2.55317700830E+01 -3.03154879390E+02  3.36324909650E+02  1.05700000000E-01  0.0000E+00  9.0
</event>
<event>
 4    1   7.6478753E-02   1.0020000E+03  -1.0000000E+00   9.4070000E-02
       -1   -1    0    0    0  500  0.00000000000E+00  0.00000000000E+00  3.27184067470E+02  3.27184067470E+02  0.00000000000E+00  0.0000E+00  9.0
        1   -1    0    0  500    0  0.00000000000E+00  0.00000000000E+00 -7.67458870640E+02  7.67458870640E+02  0.00000000000E+00  0.0000E+00  9.0
       13    1    1    2    0    0 -1.90826775750E+02  1.21089557660E+02 -7.08630652540E+02  7.43797655421E+02  1.05700000000E-01  0.0000E+00  9.0
      -13    1    1    2    0    0  1.90826775750E+02 -1.21089557660E+02  2.68355849370E+02  3.50845282683E+02  1.05700000000E-01  0.0000E+00  9.0
</event>
<event>
 4    1   7.6478753E-02   9.9980000E+02  -1.0000000E+00   9.4100000E-02
        1   -1    0    0  500    0  0.00000000000E+00  0.00000000000E+00  8.17309433440E+02  8.17309433440E+02  0.00000000000E+00  0.0000E+00  9.0
       -1   -1    0    0    0  500  0.00000000000E+00  0.00000000000E+00 -3.05735332800E+02  3.05735332800E+02  0.00000000000E+00  0.0000E+00  9.0
       13    1    1    2    0    0  2.53879374670E+02  5.39984041600E+01 -2.24105591240E+02  3.42919657839E+02  1.05700000000E-01  0.0000E+00  9.0
      -13    1    1    2    0    0 -2.53879374670E+02 -5.39984041600E+01  7.35679691880E+02  7.80125108397E+02  1.05700000000E-01  0.0000E+00  9.0
</event>
<event>
 4    1   7.6478753E-02   1.0020000E+03  -1.0000000E+00   9.4080000E-02
        1   -1    0    0  500    0  0.00000000000E+00  0.00000000000E+00  8.53329243270E+02  8.53329243270E+02  0.00000000000E+00  0.0000E+00  9.0
       -1   -1    0    0    0  500  0.00000000000E+00  0.00000000000E+00 -2.94193037110E+02  2.94193037110E+02  0.00000000000E+00  0.0000E+00  9.0
       13    1    1    2    0    0  2.59189710730E+02  3.76438572050E+02  4.44437131100E+01  4.59195556907E+02  1.05700000000E-01  0.0000E+00  9.0
      -13    1    1    2    0    0 -2.59189710730E+02 -3.76438572050E+02  5.14692493040E+02  6.88326723468E+02  1.05700000000E-01  0.0000E+00  9.0
</event>
<event>
 4    1   7.6478753E-02   9.9870000E+02  -1.0000000E+00   9.4110000E-02
       -2   -1    0    0    0  500  0.00000000000E+00  0.00000000000E+00  3.52967800820E+02  3.52967800820E+02  0.00000000000E+00  0.0000E+00  9.0
        2   -1    0    0  500    0  0.00000000000E+00  0.00000000000E+00 -7.06400051690E+02  7.06400051690E+02  0.00000000000E+00  0.0000E+00  9.0
       13    1    1    2    0    0  1.86362890130E+02 -4.40177472300E+02 -2.35481992040E+01  4.78583182734E+02  1.05700000000E-01  0.0000E+00  9.0
      -13    1    1    2    0    0 -1.86362890130E+02  4.40177472300E+02 -3.29884051670E+02  5.80784669785E+02  1.05700000000E-01  0.0000E+00  9.0
</event>
<event>
 4    1   7.6478753E-02   1.0000000E+03  -1.0000000E+00   9.4100000E-02
       -1   -1    0    0    0  500  0.00000000000E+00  0.00000000000E+00  9.52917094520E+01  9.52917094520E+01  0.00000000000E+00  0.0000E+00  9.0
        1   -1    0    0  500    0  0.00000000000E+00  0.00000000000E+00 -2.62395541600E+03  2.62395541600E+03  0.00000000000E+00  0.0000E+00  9.0
       13    1    1    2    0    0  3.20368154100E+01  3.40317512240E+02 -2.25667776590E+03  2.28241909319E+03  1.05700000000E-01  0.0000E+00  9.0
      -13    1    1    2    0    0 -3.20368154100E+01 -3.40317512240E+02 -2.71985940610E+02  4.36828032229E+02  1.05700000000E-01  0.0000E+00  9.0
</event>
<event>
 4    1   7.6478753E-02   1.0020000E+03  -1.0000000E+00   9.4070000E-02
       -1   -1    0    0    0  500  0.00000000000E+00  0.00000000000E+00  4.48636608980E+02  4.48636608980E+02  0.00000000000E+00  0.0000E+00  9.0
        1   -1    0    0  500    0  0.00000000000E+00  0.00000000000E+00 -5.59821836560E+02  5.59821836560E+02  0.00000000000E+00  0.0000E+00  9.0
       13    1    1    2    0    0  3.66990043750E+01 -4.53932108280E+02 -2.66053544380E+02  5.27433100496E+02  1.05700000000E-01  0.0000E+00  9.0
      -13    1    1    2    0    0 -3.66990043750E+01  4.53932108280E+02  1.54868316800E+02  4.81025345040E+02  1.05700000000E-01  0.0000E+00  9.0
</event>
<event>
 4    1   7.6478753E-02   9.9990000E+02  -1.0000000E+00   9.4100000E-02
        1   -1    0    0  500    0  0.00000000000E+00  0.00000000000E+00  4.06484242690E+02  4.06484242690E+02  0.00000000000E+00  0.0000E+00  9.0
       -1   -1    0    0    0  500  0.00000000000E+00  0.00000000000E+00 -6.14929374580E+02  6.14929374580E+02  0.00000000000E+00  0.0000E+00  9.0
       13    1    1    2    0    0  2.30712918760E+02  2.60105048160E+02 -4.71217377950E+02  5.85601328051E+02  1.05700000000E-01  0.0000E+00  9.0
      -13    1    1    2    0    0 -2.30712918760E+02 -2.60105048160E+02  2.62772246060E+02  4.35812289217E+02  1.05700000000E-01  0.0000E+00  9.0
</event>
<event>
 4    1   7.6478753E-02   1.0150000E+03  -1.0000000E+00   9.3940000E-02
        1   -1    0    0  500    0  0.00000000000E+00  0.00000000000E+00  4.65610823900E+02  4.65610823900E+02  0.00000000000E+00  0.0000E+00  9.0
       -1   -1    0    0    0  500  0.00000000000E+00  0.00000000000E+00 -5.53152533550E+02  5.53152533550E+02  0.00000000000E+00  0.0000E+00  9.0
       13    1    1    2    0    0 -4.17824935820E+02 -2.10730534990E+02  1.53347548950E+02  4.92443415340E+02  1.05700000000E-01  0.0000E+00  9.0
      -13    1    1    2    0    0  4.17824935820E+02  2.10730534990E+02 -2.40889258600E+02  5.26319942099E+02  1.05700000000E-01  0.0000E+00  9.0
</event>
<event>
 4    1   7.6478753E-02   9.9740000E+02  -1.0000000E+00   9.4130000E-02
        2   -1    0    0  500    0  0.00000000000E+00  0.00000000000E+00  9.53899931540E+02  9.53899931540E+02  0.00000000000E+00  0.0000E+00  9.0
       -2   -1    0    0    0  500  0.00000000000E+00  0.00000000000E+00 -2.60726455220E+02  2.60726455220E+02  0.00000000000E+00  0.0000E+00  9.0
       13    1    1    2    0    0  4.65199866100E+02  1.73400755150E+02  4.04070578500E+02  6.40118567836E+02  1.05700000000E-01  0.0000E+00  9.0
      -13    1    1    2    0    0 -4.65199866100E+02 -1.73400755150E+02  2.89102897830E+02  5.74507818930E+02  1.05700000000E-01  0.0000E+00  9.0
</event>
<event>
 4    1   7.6478753E-02   9.9760000E+02  -1.0000000E+00   9.4120000E-02
        1   -1    0    0  500    0  0.00000000000E+00  0.00000000000E+00  1.34049073950E+03  1.34049073950E+03  0.00000000000E+00  0.0000E+00  9.0
       -1   -1    0    0    0  500  0.00000000000E+00  0.00000000000E+00 -1.85601645190E+02  1.85601645190E+02  0.00000000000E+00  0.0000E+00  9.0
       13    1    1    2    0    0  2.51822430730E+02  2.05283580620E+02 -1.53373530440E+00  3.24897289320E+02  1.05700000000E-01  0.0000E+00  9.0
      -13    1    1    2    0    0 -2.51822430730E+02 -2.05283580620E+02  1.15642282960E+03  1.20119509535E+03  1.05700000000E-01  0.0000E+00  9.0
</event>
<event>
 4    1   7.6478753E-02   1.0000000E+03  -1.0000000E+00   9.4100000E-02
       -1   -1    0    0    0  500  0.00000000000E+00  0.00000000000E+00  2.81426006780E+02  2.81426006780E+02  0.00000000000E+00  0.0000E+00  9.0
        1   -1    0    0  500    0  0.00000000000E+00  0.00000000000E+00 -8.88358527310E+02  8.88358527310E+02  0.00000000000E+00  0.0000E+00  9.0
       13    1    1    2    0    0  2.24810968410E+02 -3.34675742310E+02  4.24753236130E+01  4.05403488264E+02  1.05700000000E-01  0.0000E+00  9.0
      -13    1    1    2    0    0 -2.24810968410E+02  3.34675742310E+02 -6.49407844150E+02  7.64381045830E+02  1.05700000000E-01  0.0000E+00  9.0
</event>
<event>
 4    1   7.6478753E-02   9.9750000E+02  -1.0000000E+00   9.4120000E-02
       -1   -1    0    0    0  500  0.00000000000E+00  0.00000000000E+00  1.96735172870E+02  1.96735172870E+02  0.00000000000E+00  0.0000E+00  9.0
        1   -1    0    0  500    0  0.00000000000E+00  0.00000000000E+00 -1.26443415930E+03  1.26443415930E+03  0.00000000000E+00  0.0000E+00  9.0
       13    1    1    2    0    0  4.68033555460E+02  7.98401160520E+01 -7.57581293340E+02  8.94068946088E+02  1.05700000000E-01  0.0000E+00  9.0
      -13    1    1    2    0    0 -4.68033555460E+02 -7.98401160520E+01 -3.10117693140E+02  5.67100386121E+02  1.05700000000E-01  0.0000E+00  9.0
</event>
<event>
 4    1   7.6478753E-02   9.9940000E+02  -1.0000000E+00   9.4100000E-02
        2   -1    0    0  500    0  0.00000000000E+00  0.00000000000E+00  1.76440715870E+03  1.76440715870E+03  0.00000000000E+00  0.0000E+00  9.0
       -2   -1    0    0    0  500  0.00000000000E+00  0.00000000000E+00 -1.41508836320E+02  1.41508836320E+02  0.00000000000E+00  0.0000E+00  9.0
       13    1    1    2    0    0  3.88631905050E+02  6.66717024130E+01  2.26111516620E+02  4.54539660147E+02  1.05700000000E-01  0.0000E+00  9.0
      -13    1    1    2    0    0 -3.88631905050E+02 -6.66717024130E+01  1.39678680570E+03  1.45137633482E+03  1.05700000000E-01  0.0000E+00  9.0
</event>
<event>
 4    1   7.6478753E-02   9.9130000E+02  -1.0000000E+00   9.4190000E-02
        3   -1    0    0  500    0  0.00000000000E+00  0.00000000000E+00  2.62814121870E+02  2.62814197969E+02  2.00000000000E-01  0.0000E+00  9.0
       -3   -1    0    0    0  500  0.00000000000E+00  0.00000000000E+00 -9.34838140630E+02  9.34838162024E+02  2.00000000000E-01  0.0000E+00  9.0
       13    1    1    2    0    0  1.27850521510E+02 -4.57608681610E+02 -1.65427023350E+02  5.03107913436E+02  1.05700000000E-01  0.0000E+00  9.0
      -13    1    1    2    0    0 -1.27850521510E+02  4.57608681610E+02 -5.06596995400E+02  6.94544446566E+02  1.05700000000E-01  0.0000E+00  9.0
</event>
<event>
 4    1   7.6478753E-02   9.9960000E+02  -1.0000000E+00   9.4100000E-02
       -2   -1    0    0    0  500  0.00000000000E+00  0.00000000000E+00  7.76970944210E+01  7.76970944210E+01  0.00000000000E+00  0.0000E+00  9.0
        2   -1    0    0  500    0  0.00000000000E+00  0.00000000000E+00 -3.21488372280E+03  3.21488372280E+03  0.00000000000E+00  0.0000E+00  9.0
       13    1    1    2    0    0 -4.94528765590E+02 -6.34139302360E+01 -1.68303667710E+03  1.75533258791E+03  1.05700000000E-01  0.0000E+00  9.0
      -13    1    1    2    0    0  4.94528765590E+02  6.34139302360E+01 -1.45414995130E+03  1.53724822933E+03  1.05700000000E-01  0.0000E+00  9.0
</event>
<event>
 4    1   7.6478753E-02   1.0080000E+03  -1.0000000E+00   9.4020000E-02
        1   -1    0    0  500    0  0.00000000000E+00  0.00000000000E+00  1.94451605010E+03  1.94451605010E+03  0.00000000000E+00  0.0000E+00  9.0
       -1   -1    0    0    0  500  0.00000000000E+00  0.00000000000E+00 -1.30547811320E+02  1.30547811320E+02  0.00000000000E+00  0.0000E+00  9.0
       13    1    1    2    0    0 -4.84610811280E+02  1.66239689680E+01  1.18879657530E+03  1.28388523762E+03  1.05700000000E-01  0.0000E+00  9.0
      -13    1    1    2    0    0  4.84610811280E+02 -1.66239689680E+01  6.25171663470E+02  7.91178623784E+02  1.05700000000E-01  0.0000E+00  9.0
</event>
<event>
 4    1   7.6478753E-02   1.0030000E+03  -1.0000000E+00   9.4060000E-02
       -2   -1    0    0    0  500  0.00000000000E+00  0.00000000000E+00  8.06003858760E+01  8.06003858760E+01  0.00000000000E+00  0.0000E+00  9.0
        2   -1    0    0  500    0  0.00000000000E+00  0.00000000000E+00 -3.12239327070E+03  3.12239327070E+03  0.00000000000E+00  0.0000E+00  9.0
       13    1    1    2    0    0  2.48088956820E+02  4.08547536560E+01 -2.90672806450E+03  2.91758209713E+03  1.05700000000E-01  0.0000E+00  9.0
      -13    1    1    2    0    0 -2.48088956820E+02 -4.08547536560E+01 -1.35064820290E+02  2.85411559410E+02  1.05700000000E-01  0.0000E+00  9.0
</event>
<event>
 4    1   7.6478753E-02   9.9540000E+02  -1.0000000E+00   9.4150000E-02
       -1   -1    0    0    0  500  0.00000000000E+00  0.00000000000E+00  9.11407935110E+02  9.11407935110E+02  0.00000000000E+00  0.0000E+00  9.0
        1   -1    0    0  500    0  0.00000000000E+00  0.00000000000E+00 -2.71789507780E+02  2.71789507780E+02  0.00000000000E+00  0.0000E+00  9.0
       13    1    1    2    0    0  1.54371655360E+01  4.58552229100E+02  9.05422820140E+01  4.67660527410E+02  1.05700000000E-01  0.0000E+00  9.0
      -13    1    1    2    0    0 -1.54371655360E+01 -4.58552229100E+02  5.49076145310E+02  7.15536915479E+02  1.05700000000E-01  0.0000E+00  9.0
</event>
<event>
 4    1   7.6478753E-02   1.0160000E+03  -1.0000000E+00   9.3930000E-02
       -1   -1    0    0    0  500  0.00000000000E+00  0.00000000000E+00  4.06155275910E+02  4.06155275910E+02  0.00000000000E+00  0.0000E+00  9.0
        1   -1    0    0  500    0  0.00000000000E+00  0.00000000000E+00 -6.34919801970E+02  6.34919801970E+02  0.00000000000E+00  0.0000E+00  9.0
       13    1    1    2    0    0 -4.71854979050E+02 -1.78092632120E+02 -5.36361890110E+01  5.07189273165E+02  1.05700000000E-01  0.0000E+00  9.0
      -13    1    1    2    0    0  4.71854979050E+02  1.78092632120E+02 -1.75128337050E+02  5.33885804719E+02  1.05700000000E-01  0.0000E+00  9.0
</event>
<event>
 4    1   7.6478753E-02   1.0030000E+03  -1.0000000E+00   9.4060000E-02
       -2   -1    0    0    0  500  0.00000000000E+00  0.00000000000E+00  4.26967775310E+02  4.26967775310E+02  0.00000000000E+00  0.0000E+00  9.0
        2   -1    0    0  500    0  0.00000000000E+00  0.00000000000E+00 -5.89487344340E+02  5.89487344340E+02  0.00000000000E+00  0.0000E+00  9.0
       13    1    1    2    0    0 -3.36445501260E+01 -4.25182181700E+02 -3.48861976270E+02  5.51014095144E+02  1.05700000000E-01  0.0000E+00  9.0
      -13    1    1    2    0    0  3.36445501260E+01  4.25182181700E+02  1.86342407230E+02  4.65441024506E+02  1.05700000000E-01  0.0000E+00  9.0
</event>
<event>
 4    1   7.6478753E-02   1.1590000E+03  -1.0000000E+00   9.2530000E-02
       -2   -1    0    0    0  500  0.00000000000E+00  0.00000000000E+00  2.52407833450E+02  2.52407833450E+02  0.00000000000E+00  0.0000E+00  9.0
        2   -1    0    0  500    0  0.00000000000E+00  0.00000000000E+00 -1.33090769040E+03  1.33090769040E+03  0.00000000000E+00  0.0000E+00  9.0
       13    1    1    2    0    0 -4.30100553370E+02  1.45718052320E+02 -1.03117727140E+03  1.12674167980E+03  1.05700000000E-01  0.0000E+00  9.0
      -13    1    1    2    0    0  4.30100553370E+02 -1.45718052320E+02 -4.73225855350E+01  4.56573844033E+02  1.05700000000E-01  0.0000E+00  9.0
</event>
<event>
 4    1   7.6478753E-02   1.0040000E+03  -1.0000000E+00   9.4050000E-02
       -1   -1    0    0    0  500  0.00000000000E+00  0.00000000000E+00  6.72225081090E+02  6.72225081090E+02  0.00000000000E+00  0.0000E+00  9.0
        1   -1    0    0  500    0  0.00000000000E+00  0.00000000000E+00 -3.75223661500E+02  3.75223661500E+02  0.00000000000E+00  0.0000E+00  9.0
       13    1    1    2    0    0 -1.00009370690E+02 -1.38538906700E+02 -3.43982630790E+02  3.84081976085E+02  1.05700000000E-01  0.0000E+00  9.0
      -13    1    1    2    0    0  1.00009370690E+02  1.38538906700E+02  6.40984050380E+02  6.63366766510E+02  1.05700000000E-01  0.0000E+00  9.0
</event>
<event>
 4    1   7.6478753E-02   1.0030000E+03  -1.0000000E+00   9.4060000E-02
        1   -1    0    0  500    0  0.00000000000E+00  0.00000000000E+00  4.55707239940E+02  4.55707239940E+02  0.00000000000E+00  0.0000E+00  9.0
       -1   -1    0    0    0  500  0.00000000000E+00  0.00000000000E+00 -5.52040991680E+02  5.52040991680E+02  0.00000000000E+00  0.0000E+00  9.0
       13    1    1    2    0    0 -2.60225556160E+02  3.25944965390E+02 -3.28037137220E+02  5.30627774537E+02  1.05700000000E-01  0.0000E+00  9.0
      -13    1    1    2    0    0  2.60225556160E+02 -3.25944965390E+02  2.31703385480E+02  4.77120457073E+02  1.05700000000E-01  0.0000E+00  9.0
</event>
<event>
 4    1   7.6478753E-02   9.9940000E+02  -1.0000000E+00   9.4100000E-02
       -2   -1    0    0    0  500  0.00000000000E+00  0.00000000000E+00  1.49167385680E+02  1.49167385680E+02  0.00000000000E+00  0.0000E+00  9.0
        2   -1    0    0  500    0  0.00000000000E+00  0.00000000000E+00 -1.67389546770E+03  1.67389546770E+03  0.00000000000E+00  0.0000E+00  9.0
       13    1    1    2    0    0 -4.07304916950E+02 -7.78038983680E+01 -1.27098284350E+03  1.33691740269E+03  1.05700000000E-01  0.0000E+00  9.0
      -13    1    1    2    0    0  4.07304916950E+02  7.78038983680E+01 -2.53745238490E+02  4.86145450664E+02  1.05700000000E-01  0.0000E+00  9.0
</event>
<event>
 4    1   7.6478753E-02   9.9920000E+02  -1.0000000E+00   9.4110000E-02
        1   -1    0    0  500    0  0.00000000000E+00  0.00000000000E+00  5.24996700370E+02  5.24996700370E+02  0.00000000000E+00  0.0000E+00  9.0
       -1   -1    0    0    0  500  0.00000000000E+00  0.00000000000E+00 -4.75408609690E+02  4.75408609690E+02  0.00000000000E+00  0.0000E+00  9.0
       13    1    1    2    0    0 -2.45650865530E+02 -8.60164379780E+01  4.51751485290E+02  5.21366081532E+02  1.05700000000E-01  0.0000E+00  9.0
      -13    1    1    2    0    0  2.45650865530E+02  8.60164379780E+01 -4.02163394610E+02  4.79039228534E+02  1.05700000000E-01  0.0000E+00  9.0
</event>
<event>
 4    1   7.6478753E-02   1.0030000E+03  -1.0000000E+00   9.4070000E-02
        2   -1    0    0  500    0  0.00000000000E+00  0.00000000000E+00  3.35969722650E+03  3.35969722650E+03  0.00000000000E+00  0.0000E+00  9.0
       -2   -1    0    0    0  500  0.00000000000E+00  0.00000000000E+00 -7.47873317050E+01  7.47873317050E+01  0.00000000000E+00  0.0000E+00  9.0
       13    1    1    2    0    0  4.45066828910E+02  2.13311266370E+02  1.34229553140E+03  1.43015505570E+03  1.05700000000E-01  0.0000E+00  9.0
      -13    1    1    2    0    0 -4.45066828910E+02 -2.13311266370E+02  1.94261436350E+03  2.00432950260E+03  1.05700000000E-01  0.0000E+00  9.0
</event>
<event>
 4    1   7.6478753E-02   9.9870000E+02  -1.0000000E+00   9.4110000E-02
        1   -1    0    0  500    0  0.00000000000E+00  0.00000000000E+00  2.46641091890E+03  2.46641091890E+03  0.00000000000E+00  0.0000E+00  9.0
       -1   -1    0    0    0  500  0.00000000000E+00  0.00000000000E+00 -1.01100786740E+02  1.01100786740E+02  0.00000000000E+00  0.0000E+00  9.0
       13    1    1    2    0    0  3.99724629510E+02 -9.57267240990E+01  4.53642957620E+02  6.12156294842E+02  1.05700000000E-01  0.0000E+00  9.0
      -13    1    1    2    0    0 -3.99724629510E+02  9.57267240990E+01  1.91166717460E+03  1.95535541085E+03  1.05700000000E-01  0.0000E+00  9.0
</event>
<event>
 4    1   7.6478753E-02   9.9860000E+02  -1.0000000E+00   9.4110000E-02
        1   -1    0    0  500    0  0.00000000000E+00  0.00000000000E+00  1.13158819080E+03  1.13158819080E+03  0.00000000000E+00  0.0000E+00  9.0
       -1   -1    0    0    0  500  0.00000000000E+00  0.00000000000E+00 -2.20310474950E+02  2.20310474950E+02  0.00000000000E+00  0.0000E+00  9.0
       13    1    1    2    0    0  3.94199351480E+02  1.38981866570E+02  8.25379697940E+02  9.25181465923E+02  1.05700000000E-01  0.0000E+00  9.0
      -13    1    1    2    0    0 -3.94199351480E+02 -1.38981866570E+02  8.58980178720E+01  4.26717199781E+02  1.05700000000E-01  0.0000E+00  9.0
</event>
<event>
 4    1   7.6478753E-02   1.0020000E+03  -1.0000000E+00   9.4080000E-02
       -1   -1    0    0    0  500  0.00000000000E+00  0.00000000000E+00  2.01129695550E+02  2.01129695550E+02  0.00000000000E+00  0.0000E+00  9.0
        1   -1    0    0  500    0  0.00000000000E+00  0.00000000000E+00 -1.24730283590E+03  1.24730283590E+03  0.00000000000E+00  0.0000E+00  9.0
       13    1    1    2    0    0 -4.70607601940E+02 -1.68820966220E+02 -5.66406165520E+02  7.55505121856E+02  1.05700000000E-01  0.0000E+00  9.0
      -13    1    1    2    0    0  4.70607601940E+02  1.68820966220E+02 -4.79766974810E+02  6.92927409568E+02  1.05700000000E-01  0.0000E+00  9.0
</event>
<event>
 4    1   7.6478753E-02   1.0010000E+03  -1.0000000E+00   9.4080000E-02
       -1   -1    0    0    0  500  0.00000000000E+00  0.00000000000E+00  2.04793863020E+02  2.04793863020E+02  0.00000000000E+00  0.0000E+00  9.0
        1   -1    0    0  500    0  0.00000000000E+00  0.00000000000E+00 -1.22392117440E+03  1.22392117440E+03  0.00000000000E+00  0.0000E+00  9.0
       13    1    1    2    0    0  4.06159115800E+02  1.99369253100E+02 -2.03742552550E+02  4.96210001230E+02  1.05700000000E-01  0.0000E+00  9.0
      -13    1    1    2    0    0 -4.06159115800E+02 -1.99369253100E+02 -8.15384758830E+02  9.32505036198E+02  1.05700000000E-01  0.0000E+00  9.0
</event>
<event>
 4    1   7.6478753E-02   9.9570000E+02  -1.0000000E+00   9.4140000E-02
       -2   -1    0    0    0  500  0.00000000000E+00  0.00000000000E+00  1.75946510940E+02  1.75946510940E+02  0.00000000000E+00  0.0000E+00  9.0
        2   -1    0    0  500    0  0.00000000000E+00  0.00000000000E+00 -1.40861265580E+03  1.40861265580E+03  0.00000000000E+00  0.0000E+00  9.0
       13    1    1    2    0    0 -1.83407788770E+02  3.62097400360E+02 -1.57599782980E+02  4.35420081182E+02  1.05700000000E-01  0.0000E+00  9.0
      -13    1    1    2    0    0  1.83407788770E+02 -3.62097400360E+02 -1.07506636190E+03  1.14913908557E+03  1.05700000000E-01  0.0000E+00  9.0
</event>
<event>
 4    1   7.6478753E-02   1.0020000E+03  -1.0000000E+00   9.4070000E-02
       -2   -1    0    0    0  500  0.00000000000E+00  0.00000000000E+00  3.55522966210E+02  3.55522966210E+02  0.00000000000E+00  0.0000E+00  9.0
        2   -1    0    0  500    0  0.00000000000E+00  0.00000000000E+00 -7.06367518510E+02  7.06367518510E+02  0.00000000000E+00  0.0000E+00  9.0
       13    1    1    2    0    0 -2.33418468600E+02  6.07957048940E+01 -6.40818060360E+02  6.84710228398E+02  1.05700000000E-01  0.0000E+00  9.0
      -13    1    1    2    0    0  2.33418468600E+02 -6.07957048940E+01  2.89973508050E+02  3.77180256324E+02  1.05700000000E-01  0.0000E+00  9.0
</event>
<event>
 4    1   7.6478753E-02   9.9980000E+02  -1.0000000E+00   9.4100000E-02
       -1   -1    0    0    0  500  0.00000000000E+00  0.00000000000E+00  1.23031471810E+03  1.23031471810E+03  0.00000000000E+00  0.0000E+00  9.0
        1   -1    0    0  500    0  0.00000000000E+00  0.00000000000E+00 -2.03131142710E+02  2.03131142710E+02  0.00000000000E+00  0.0000E+00  9.0
       13    1    1    2    0    0  2.61794400480E+02  2.39955562400E+02  9.14462587880E+00  3.55244444579E+02  1.05700000000E-01  0.0000E+00  9.0
      -13    1    1    2    0    0 -2.61794400480E+02 -2.39955562400E+02  1.01803894950E+03  1.07820141621E+03  1.05700000000E-01  0.0000E+00  9.0
</event>
<event>
 4    1   7.6478753E-02   9.9230000E+02  -1.0000000E+00   9.4180000E-02
        1   -1    0    0  500    0  0.00000000000E+00  0.00000000000E+00  6.13615752320E+02  6.13615752320E+02  0.00000000000E+00  0.0000E+00  9.0
       -1   -1    0    0    0  500  0.00000000000E+00  0.00000000000E+00 -4.01168096020E+02  4.01168096020E+02  0.00000000000E+00  0.0000E+00  9.0
       13    1    1    2    0    0  6.66080778900E+01 -4.91302719220E+02  8.71448385290E+01  5.03397687726E+02  1.05700000000E-01  0.0000E+00  9.0
      -13    1    1    2    0    0 -6.66080778900E+01  4.91302719220E+02  1.25302817760E+02  5.11386160611E+02  1.05700000000E-01  0.0000E+00  9.0
</event>
<event>
 4    1   7.6478753E-02   9.9690000E+02  -1.0000000E+00   9.4130000E-02
       -3   -1    0    0    0  500  0.00000000000E+00  0.00000000000E+00  6.60033578140E+02  6.60033608441E+02  2.00000000000E-01  0.0000E+00  9.0
        3   -1    0    0  500    0  0.00000000000E+00  0.00000000000E+00 -3.76435301300E+02  3.76435354430E+02  2.00000000000E-01  0.0000E+00  9.0
       13    1    1    2    0    0  2.54915127480E+02 -2.27000659260E+02  5.19459191220E+02  6.21569693629E+02  1.05700000000E-01  0.0000E+00  9.0
      -13    1    1    2    0    0 -2.54915127480E+02  2.27000659260E+02 -2.35860914380E+02  4.14899269254E+02  1.05700000000E-01  0.0000E+00  9.0
</event>
<event>
 4    1   7.6478753E-02   9.9490000E+02  -1.0000000E+00   9.4150000E-02
       -1   -1    0    0    0  500  0.00000000000E+00  0.00000000000E+00  2.36317238210E+02  2.36317238210E+02  0.00000000000E+00  0.0000E+00  9.0
        1   -1    0    0  500    0  0.00000000000E+00  0.00000000000E+00 -1.04704122840E+03  1.04704122840E+03  0.00000000000E+00  0.0000E+00  9.0
       13    1    1    2    0    0 -1.27276718130E+02  3.48153677630E+02 -8.33251059240E+02  9.11985572870E+02  1.05700000000E-01  0.0000E+00  9.0
      -13    1    1    2    0    0  1.27276718130E+02 -3.48153677630E+02  2.25270690170E+01  3.71372893782E+02  1.05700000000E-01  0.0000E+00  9.0
</event>
<event>
 4    1   7.6478753E-02   1.0020000E+03  -1.0000000E+00   9.4080000E-02
        1   -1    0    0  500    0  0.00000000000E+00  0.00000000000E+00  1.22346523290E+03  1.22346523290E+03  0.00000000000E+00  0.0000E+00  9.0
       -1   -1    0    0    0  500  0.00000000000E+00  0.00000000000E+00 -2.05060756190E+02  2.05060756190E+02  0.00000000000E+00  0.0000E+00  9.0
       13    1    1    2    0    0 -3.97550781590E+02  9.89411815430E+01  9.82536331200E+01  4.21295346452E+02  1.05700000000E-01  0.0000E+00  9.0
      -13    1    1    2    0    0  3.97550781590E+02 -9.89411815430E+01  9.20150843540E+02  1.00723064260E+03  1.05700000000E-01  0.0000E+00  9.0
</event>
<event>
 4    1   7.6478753E-02   9.6480000E+02  -1.0000000E+00   9.4490000E-02
        3   -1    0    0  500    0  0.00000000000E+00  0.00000000000E+00  8.13529735370E+02  8.13529759954E+02  2.00000000000E-01  0.0000E+00  9.0
       -3   -1    0    0    0  500  0.00000000000E+00  0.00000000000E+00 -2.86056760950E+02  2.86056830866E+02  2.00000000000E-01  0.0000E+00  9.0
       13    1    1    2    0    0  1.45497692820E+02 -1.55410283730E+02 -2.29623768650E+02  3.13127803311E+02  1.05700000000E-01  0.0000E+00  9.0
      -13    1    1    2    0    0 -1.45497692820E+02  1.55410283730E+02  7.57096743070E+02  7.86458787506E+02  1.05700000000E-01  0.0000E+00  9.0
</event>
<event>
 4    1   7.6478753E-02   1.0010000E+03  -1.0000000E+00   9.4090000E-02
        1   -1    0    0  500    0  0.00000000000E+00  0.00000000000E+00  4.18063364610E+02  4.18063364610E+02  0.00000000000E+00  0.0000E+00  9.0
       -1   -1    0    0    0  500  0.00000000000E+00  0.00000000000E+00 -5.98710584830E+02  5.98710584830E+02  0.00000000000E+00  0.0000E+00  9.0
       13    1    1    2    0    0 -3.08608018210E+02  3.62877896280E+02 -2.45699673980E+02  5.35992180427E+02  1.05700000000E-01  0.0000E+00  9.0
      -13    1    1    2    0    0  3.08608018210E+02 -3.62877896280E+02  6.50524537580E+01  4.80781769023E+02  1.05700000000E-01  0.0000E+00  9.0
</event>
<event>
 4    1   7.6478753E-02   1.0040000E+03  -1.0000000E+00   9.4050000E-02
        1   -1    0    0  500    0  0.00000000000E+00  0.00000000000E+00  1.72909894720E+03  1.72909894720E+03  0.00000000000E+00  0.0000E+00  9.0
       -1   -1    0    0    0  500  0.00000000000E+00  0.00000000000E+00 -1.45762233470E+02  1.45762233470E+02  0.00000000000E+00  0.0000E+00  9.0
       13    1    1    2    0    0 -4.73432555800E+01 -3.63332417720E+02  1.43251273060E+03  1.47862928556E+03  1.05700000000E-01  0.0000E+00  9.0
      -13    1    1    2    0    0  4.73432555800E+01  3.63332417720E+02  1.50823983060E+02  3.96231895049E+02  1.05700000000E-01  0.0000E+00  9.0
</event>
<event>
 4    1   7.6478753E-02   9.9980000E+02  -1.0000000E+00   9.4100000E-02
        1   -1    0    0  500    0  0.00000000000E+00  0.00000000000E+00  1.27968083800E+03  1.27968083800E+03  0.00000000000E+00  0.0000E+00  9.0
       -1   -1    0    0    0  500  0.00000000000E+00  0.00000000000E+00 -1.95264422210E+02  1.95264422210E+02  0.00000000000E+00  0.0000E+00  9.0
       13    1    1    2    0    0  3.12898002460E+02  3.42511910260E+02  2.67560336570E+02  5.35544688603E+02  1.05700000000E-01  0.0000E+00  9.0
      -13    1    1    2    0    0 -3.12898002460E+02 -3.42511910260E+02  8.16856079260E+02  9.39400571647E+02  1.05700000000E-01  0.0000E+00  9.0
</event>
<event>
 4    1   7.6478753E-02   1.0030000E+03  -1.0000000E+00   9.4060000E-02
       -3   -1    0    0    0  500  0.00000000000E+00  0.00000000000E+00  2.48285679020E+02  2.48285759572E+02  2.00000000000E-01  0.0000E+00  9.0
        3   -1    0    0  500    0  0.00000000000E+00  0.00000000000E+00 -1.01392578720E+03  1.01392580693E+03  2.00000000000E-01  0.0000E+00  9.0
       13    1    1    2    0    0 -1.35965378270E+02  8.31235338240E+01  2.15606350500E+02  2.68108589030E+02  1.05700000000E-01  0.0000E+00  9.0
      -13    1    1    2    0    0  1.35965378270E+02 -8.31235338240E+01 -9.81246458730E+02  9.94102977516E+02  1.05700000000E-01  0.0000E+00  9.0
</event>
<event>
 4    1   7.6478753E-02   1.0030000E+03  -1.0000000E+00   9.4070000E-02
        1   -1    0    0  500    0  0.00000000000E+00  0.00000000000E+00  1.45028486620E+03  1.45028486620E+03  0.00000000000E+00  0.0000E+00  9.0
       -1   -1    0    0    0  500  0.00000000000E+00  0.00000000000E+00 -1.73264522760E+02  1.73264522760E+02  0.00000000000E+00  0.0000E+00  9.0
       13    1    1    2    0    0  2.11322223760E+02 -4.02996344400E+02  2.97974776820E+02  5.43922894028E+02  1.05700000000E-01  0.0000E+00  9.0
      -13    1    1    2    0    0 -2.11322223760E+02  4.02996344400E+02  9.79045566650E+02  1.07962649495E+03  1.05700000000E-01  0.0000E+00  9.0
</event>
<event>
 4    1   7.6478753E-02   9.9970000E+02  -1.0000000E+00   9.4100000E-02
       -1   -1    0    0    0  500  0.00000000000E+00  0.00000000000E+00  9.99075755420E+01  9.99075755420E+01  0.00000000000E+00  0.0000E+00  9.0
        1   -1    0    0  500    0  0.00000000000E+00  0.00000000000E+00 -2.50093753390E+03  2.50093753390E+03  0.00000000000E+00  0.0000E+00  9.0
       13    1    1    2    0    0 -2.43909024740E+02  3.29423742320E+02 -4.56218776850E+02  6.13308403560E+02  1.05700000000E-01  0.0000E+00  9.0
      -13    1    1    2    0    0  2.43909024740E+02 -3.29423742320E+02 -1.94481118150E+03  1.98753670588E+03  1.05700000000E-01  0.0000E+00  9.0
</event>
<event>
 4    1   7.6478753E-02   9.9740000E+02  -1.0000000E+00   9.4130000E-02
        2   -1    0    0  500    0  0.00000000000E+00  0.00000000000E+00  3.57981281110E+03  3.57981281110E+03  0.00000000000E+00  0.0000E+00  9.0
       -2   -1    0    0    0  500  0.00000000000E+00  0.00000000000E+00 -6.94682492690E+01  6.94682492690E+01  0.00000000000E+00  0.0000E+00  9.0
       13    1    1    2    0    0 -2.27376487460E+02  1.58964798890E+02  3.27137101580E+03  3.28311410227E+03  1.05700000000E-01  0.0000E+00  9.0
      -13    1    1    2    0    0  2.27376487460E+02 -1.58964798890E+02  2.38973546060E+02  3.66166958128E+02  1.05700000000E-01  0.0000E+00  9.0
</event>
<event>
 4    1   7.6478753E-02   1.0010000E+03  -1.0000000E+00   9.4090000E-02
       -1   -1    0    0    0  500  0.00000000000E+00  0.00000000000E+00  1.95573626160E+02  1.95573626160E+02  0.00000000000E+00  0.0000E+00  9.0
        1   -1    0    0  500    0  0.00000000000E+00  0.00000000000E+00 -1.27990807040E+03  1.27990807040E+03  0.00000000000E+00  0.0000E+00  9.0
       13    1    1    2    0    0  2.89608594620E+02  4.81956520030E+01 -1.13953313750E+03  1.17674625199E+03  1.05700000000E-01  0.0000E+00  9.0
      -13    1    1    2    0    0 -2.89608594620E+02 -4.81956520030E+01  5.51986932280E+01  2.98735444593E+02  1.05700000000E-01  0.0000E+00  9.0
</event>
<event>
 4    1   7.6478753E-02   1.0390000E+03  -1.0000000E+00   9.3690000E-02
       -1   -1    0    0    0  500  0.00000000000E+00  0.00000000000E+00  4.70984166820E+02  4.70984166820E+02  0.00000000000E+00  0.0000E+00  9.0
        1   -1    0    0  500    0  0.00000000000E+00  0.00000000000E+00 -5.72725090250E+02  5.72725090250E+02  0.00000000000E+00  0.0000E+00  9.0
       13    1    1    2    0    0 -1.54443246720E+02 -4.52433442300E+02  1.53068045390E+02  5.01974674521E+02  1.05700000000E-01  0.0000E+00  9.0
      -13    1    1    2    0    0  1.54443246720E+02  4.52433442300E+02 -2.54808968820E+02  5.41734582552E+02  1.05700000000E-01  0.0000E+00  9.0
</event>
<event>
 4    1   7.6478753E-02   1.0010000E+03  -1.0000000E+00   9.4080000E-02
       -1   -1    0    0    0  500  0.00000000000E+00  0.00000000000E+00  9.26845794060E+02  9.26845794060E+02  0.00000000000E+00  0.0000E+00  9.0
        1   -1    0    0  500    0  0.00000000000E+00  0.00000000000E+00 -2.70491315990E+02  2.70491315990E+02  0.00000000000E+00  0.0000E+00  9.0
       13    1    1    2    0    0  4.46155910590E+01 -4.76648841770E+02  5.03572425700E+02  6.94816427860E+02  1.05700000000E-01  0.0000E+00  9.0
      -13    1    1    2    0    0 -4.46155910590E+01  4.76648841770E+02  1.52782052370E+02  5.02520682186E+02  1.05700000000E-01  0.0000E+00  9.0
</event>
<event>
 4    1   7.6478753E-02   9.9680000E+02  -1.0000000E+00   9.4130000E-02
       -1   -1    0    0    0  500  0.00000000000E+00  0.00000000000E+00  8.35817537770E+02  8.35817537770E+02  0.00000000000E+00  0.0000E+00  9.0
        1   -1    0    0  500    0  0.00000000000E+00  0.00000000000E+00 -2.97201319150E+02  2.97201319150E+02  0.00000000000E+00  0.0000E+00  9.0
       13    1    1    2    0    0 -5.53312898110E+01  2.19320444930E+02 -2.35500665840E+02  3.26532669085E+02  1.05700000000E-01  0.0000E+00  9.0
      -13    1    1    2    0    0  5.53312898110E+01 -2.19320444930E+02  7.74116884460E+02  8.06486187839E+02  1.05700000000E-01  0.0000E+00  9.0
</event>
<event>
 4    1   7.6478753E-02   1.0060000E+03  -1.0000000E+00   9.4040000E-02
       -1   -1    0    0    0  500  0.00000000000E+00  0.00000000000E+00  1.38108032870E+02  1.38108032870E+02  0.00000000000E+00  0.0000E+00  9.0
        1   -1    0    0  500    0  0.00000000000E+00  0.00000000000E+00 -1.83103463240E+03  1.83103463240E+03  0.00000000000E+00  0.0000E+00  9.0
       13    1    1    2    0    0 -1.85997654660E+02  4.29690761940E+02 -1.20562529100E+03  1.29335286442E+03  1.05700000000E-01  0.0000E+00  9.0
      -13    1    1    2    0    0  1.85997654660E+02 -4.29690761940E+02 -4.87301308480E+02  6.75789800792E+02  1.05700000000E-01  0.0000E+00  9.0
</event>
<event>
 4    1   7.6478753E-02   9.9470000E+02  -1.0000000E+00   9.4160000E-02
       -1   -1    0    0    0  500  0.00000000000E+00  0.00000000000E+00  1.24960059480E+02  1.24960059480E+02  0.00000000000E+00  0.0000E+00  9.0
        1   -1    0    0  500    0  0.00000000000E+00  0.00000000000E+00 -1.97934632550E+03  1.97934632550E+03  0.00000000000E+00  0.0000E+00  9.0
       13    1    1    2    0    0  8.96268323410E+01  5.50020742570E+00  1.07667920690E+02  1.40198479576E+02  1.05700000000E-01  0.0000E+00  9.0
      -13    1    1    2    0    0 -8.96268323410E+01 -5.50020742570E+00 -1.96205418670E+03  1.96410790541E+03  1.05700000000E-01  0.0000E+00  9.0
</event>
<event>
 4    1   7.6478753E-02   9.9900000E+02  -1.0000000E+00   9.4110000E-02
       -2   -1    0    0    0  500  0.00000000000E+00  0.00000000000E+00  4.27823742530E+02  4.27823742530E+02  0.00000000000E+00  0.0000E+00  9.0
        2   -1    0    0  500    0  0.00000000000E+00  0.00000000000E+00 -5.83171557210E+02  5.83171557210E+02  0.00000000000E+00  0.0000E+00  9.0
       13    1    1    2    0    0 -1.81336388040E+02 -2.76197941470E+02  3.01430020310E+02  4.47245186465E+02  1.05700000000E-01  0.0000E+00  9.0
      -13    1    1    2    0    0  1.81336388040E+02  2.76197941470E+02 -4.56777835000E+02  5.63750113277E+02  1.05700000000E-01  0.0000E+00  9.0
</event>
<event>
 4    1   7.6478753E-02   9.9260000E+02  -1.0000000E+00   9.4180000E-02
        1   -1    0    0  500    0  0.00000000000E+00  0.00000000000E+00  2.16828278200E+03  2.16828278200E+03  0.00000000000E+00  0.0000E+00  9.0
       -1   -1    0    0    0  500  0.00000000000E+00  0.00000000000E+00 -1.13607007730E+02  1.13607007730E+02  0.00000000000E+00  0.0000E+00  9.0
       13    1    1    2    0    0  6.30459410450E+01  3.57594291220E+02  1.80515207840E+03  1.84130999702E+03  1.05700000000E-01  0.0000E+00  9.0
      -13    1    1    2    0    0 -6.30459410450E+01 -3.57594291220E+02  2.49523695940E+02  4.40579792777E+02  1.05700000000E-01  0.0000E+00  9.0
</event>
<event>
 4    1   7.6478753E-02   9.9360000E+02  -1.0000000E+00   9.4170000E-02
       -1   -1    0    0    0  500  0.00000000000E+00  0.00000000000E+00  1.53288168760E+02  1.53288168760E+02  0.00000000000E+00  0.0000E+00  9.0
        1   -1    0    0  500    0  0.00000000000E+00  0.00000000000E+00 -1.61005367070E+03  1.61005367070E+03  0.00000000000E+00  0.0000E+00  9.0
       13    1    1    2    0    0  3.14163967190E+02  3.70776685140E+02 -5.45423615830E+02  7.30521238844E+02  1.05700000000E-01  0.0000E+00  9.0
      -13    1    1    2    0    0 -3.14163967190E+02 -3.70776685140E+02 -9.11341886080E+02  1.03282060060E+03  1.05700000000E-01  0.0000E+00  9.0
</event>
<event>
 4    1   7.6478753E-02   1.0010000E+03  -1.0000000E+00   9.4080000E-02
       -1   -1    0    0    0  500  0.00000000000E+00  0.00000000000E+00  9.23572409970E+02  9.23572409970E+02  0.00000000000E+00  0.0000E+00  9.0
        1   -1    0    0  500    0  0.00000000000E+00  0.00000000000E+00 -2.71440453160E+02  2.71440453160E+02  0.00000000000E+00  0.0000E+00  9.0
       13    1    1    2    0    0 -2.93991485880E+02 -2.82289190190E+02 -2.09865771660E+01  4.08115949531E+02  1.05700000000E-01  0.0000E+00  9.0
      -13    1    1    2    0    0  2.93991485880E+02  2.82289190190E+02  6.73118533980E+02  7.86896913597E+02  1.05700000000E-01  0.0000E+00  9.0
</event>
<event>
 4    1   7.6478753E-02   9.9880000E+02  -1.0000000E+00   9.4110000E-02
       -1   -1    0    0    0  500  0.00000000000E+00  0.00000000000E+00  1.92306825030E+03  1.92306825030E+03  0.00000000000E+00  0.0000E+00  9.0
        1   -1    0    0  500    0  0.00000000000E+00  0.00000000000E+00 -1.29689008440E+02  1.29689008440E+02  0.00000000000E+00  0.0000E+00  9.0
       13    1    1    2    0    0  3.04266899350E+02 -4.61840642660E+01  1.70502031510E+03  1.73257196096E+03  1.05700000000E-01  0.0000E+00  9.0
      -13    1    1    2    0    0 -3.04266899350E+02  4.61840642660E+01  8.83589268120E+01  3.20185297839E+02  1.05700000000E-01  0.0000E+00  9.0
</event>
<event>
 4    1   7.6478753E-02   1.0080000E+03  -1.0000000E+00   9.4010000E-02
        1   -1    0    0  500    0  0.00000000000E+00  0.00000000000E+00  1.37279907780E+02  1.37279907780E+02  0.00000000000E+00  0.0000E+00  9.0
       -1   -1    0    0    0  500  0.00000000000E+00  0.00000000000E+00 -1.85190416640E+03  1.85190416640E+03  0.00000000000E+00  0.0000E+00  9.0
       13    1    1    2    0    0 -2.59851780640E+02 -3.41036631970E+02 -1.38069494280E+03  1.44573423163E+03  1.05700000000E-01  0.0000E+00  9.0
      -13    1    1    2    0    0  2.59851780640E+02  3.41036631970E+02 -3.33929315830E+02  5.43449842571E+02  1.05700000000E-01  0.0000E+00  9.0
</event>
<event>
 4    1   7.6478753E-02   1.0050000E+03  -1.0000000E+00   9.4050000E-02
        1   -1    0    0  500    0  0.00000000000E+00  0.00000000000E+00  8.46847439180E+02  8.46847439180E+02  0.00000000000E+00  0.0000E+00  9.0
       -1   -1    0    0    0  500  0.00000000000E+00  0.00000000000E+00 -2.98012382230E+02  2.98012382230E+02  0.00000000000E+00  0.0000E+00  9.0
       13    1    1    2    0    0  2.51597956850E+02  7.01761810780E+01  7.63387607520E+02  8.06837578927E+02  1.05700000000E-01  0.0000E+00  9.0
      -13    1    1    2    0    0 -2.51597956850E+02 -7.01761810780E+01 -2.14552550570E+02  3.38022242479E+02  1.05700000000E-01  0.0000E+00  9.0
</event>
<event>
 4    1   7.6478753E-02   1.0030000E+03  -1.0000000E+00   9.4070000E-02
       -1   -1    0    0    0  500  0.00000000000E+00  0.00000000000E+00  7.55961114020E+01  7.55961114020E+01  0.00000000000E+00  0.0000E+00  9.0
        1   -1    0    0  500    0  0.00000000000E+00  0.00000000000E+00 -3.32441156390E+03  3.32441156390E+03  0.00000000000E+00  0.0000E+00  9.0
       13    1    1    2    0    0 -6.54837603940E+01  4.36460259540E+02 -8.18156579000E+02  9.29605228022E+02  1.05700000000E-01  0.0000E+00  9.0
      -13    1    1    2    0    0  6.54837603940E+01 -4.36460259540E+02 -2.43065887350E+03  2.47040244728E+03  1.05700000000E-01  0.0000E+00  9.0
</event>
<event>
 4    1   7.6478753E-02   9.9510000E+02  -1.0000000E+00   9.4150000E-02
        2   -1    0    0  500    0  0.00000000000E+00  0.00000000000E+00  2.93228341920E+03  2.93228341920E+03  0.00000000000E+00  0.0000E+00  9.0
       -2   -1    0    0    0  500  0.00000000000E+00  0.00000000000E+00 -8.44159165990E+01  8.44159165990E+01  0.00000000000E+00  0.0000E+00  9.0
       13    1    1    2    0    0  1.86025235630E+02 -1.79251054110E+02  1.34852890050E+02  2.91413180584E+02  1.05700000000E-01  0.0000E+00  9.0
      -13    1    1    2    0    0 -1.86025235630E+02  1.79251054110E+02  2.71301461260E+03  2.72528615526E+03  1.05700000000E-01  0.0000E+00  9.0
</event>
<event>
 4    1   7.6478753E-02   9.9170000E+02  -1.0000000E+00   9.4190000E-02
       -1   -1    0    0    0  500  0.00000000000E+00  0.00000000000E+00  1.50033577440E+02  1.50033577440E+02  0.00000000000E+00  0.0000E+00  9.0
        1   -1    0    0  500    0  0.00000000000E+00  0.00000000000E+00 -1.63888805190E+03  1.63888805190E+03  0.00000000000E+00  0.0000E+00  9.0
       13    1    1    2    0    0 -3.17444581310E+02  2.48002416330E+02 -2.22840356850E+02  4.60363005162E+02  1.05700000000E-01  0.0000E+00  9.0
      -13    1    1    2    0    0  3.17444581310E+02 -2.48002416330E+02 -1.26601411760E+03  1.32855862417E+03  1.05700000000E-01  0.0000E+00  9.0
</event>
<event>
 4    1   7.6478753E-02   1.0050000E+03  -1.0000000E+00   9.4050000E-02
       -2   -1    0    0    0  500  0.00000000000E+00  0.00000000000E+00  1.94494846480E+02  1.94494846480E+02  0.00000000000E+00  0.0000E+00  9.0
        2   -1    0    0  500    0  0.00000000000E+00  0.00000000000E+00 -1.29714615030E+03  1.29714615030E+03  0.00000000000E+00  0.0000E+00  9.0
       13    1    1    2    0    0  2.09918170230E+02  1.03317734350E+02 -1.21129257690E+03  1.23368144610E+03  1.05700000000E-01  0.0000E+00  9.0
      -13    1    1    2    0    0 -2.09918170230E+02 -1.03317734350E+02  1.08641273050E+02  2.57959550717E+02  1.05700000000E-01  0.0000E+00  9.0
</event>
<event>
 4    1   7.6478753E-02   9.9700000E+02  -1.0000000E+00   9.4130000E-02
        1   -1    0    0  500    0  0.00000000000E+00  0.00000000000E+00  2.50592681440E+02  2.50592681440E+02  0.00000000000E+00  0.0000E+00  9.0
       -1   -1    0    0    0  500  0.00000000000E+00  0.00000000000E+00 -9.91691318700E+02  9.91691318700E+02  0.00000000000E+00  0.0000E+00  9.0
       13    1    1    2    0    0 -1.79300269670E+02 -8.37059532320E+01 -9.40661645120E+02  9.61248987039E+02  1.05700000000E-01  0.0000E+00  9.0
      -13    1    1    2    0    0  1.79300269670E+02  8.37059532320E+01  1.99563007860E+02  2.81035013101E+02  1.05700000000E-01  0.0000E+00  9.0
</event>
<event>
 4    1   7.6478753E-02   1.0230000E+03  -1.0000000E+00   9.3850000E-02
        1   -1    0    0  500    0  0.00000000000E+00  0.00000000000E+00  2.68340991210E+02  2.68340991210E+02  0.00000000000E+00  0.0000E+00  9.0
       -1   -1    0    0    0  500  0.00000000000E+00  0.00000000000E+00 -9.75482053640E+02  9.75482053640E+02  0.00000000000E+00  0.0000E+00  9.0
       13    1    1    2    0    0 -1.22807320200E+02  3.94823918190E+02 -7.19843285310E+02  8.30145728681E+02  1.05700000000E-01  0.0000E+00  9.0
      -13    1    1    2    0    0  1.22807320200E+02 -3.94823918190E+02  1.27022228840E+01  4.13677316164E+02  1.05700000000E-01  0.0000E+00  9.0
</event>
<event>
 4    1   7.6478753E-02   1.0000000E+03  -1.0000000E+00   9.4100000E-02
       -1   -1    0    0    0  500  0.00000000000E+00  0.00000000000E+00  6.39510810110E+02  6.39510810110E+02  0.00000000000E+00  0.0000E+00  9.0
        1   -1    0    0  500    0  0.00000000000E+00  0.00000000000E+00 -3.91073794970E+02  3.91073794970E+02  0.00000000000E+00  0.0000E+00  9.0
       13    1    1    2    0    0  2.92966520810E+02  1.66027994430E+02  5.05184811790E+02  6.07129625768E+02  1.05700000000E-01  0.0000E+00  9.0
      -13    1    1    2    0    0 -2.92966520810E+02 -1.66027994430E+02 -2.56747796650E+02  4.23454979315E+02  1.05700000000E-01  0.0000E+00  9.0
</event>
<event>
 4    1   7.6478753E-02   1.0260000E+03  -1.0000000E+00   9.3820000E-02
       -2   -1    0    0    0  500  0.00000000000E+00  0.00000000000E+00  8.82934870130E+01  8.82934870130E+01  0.00000000000E+00  0.0000E+00  9.0
        2   -1    0    0  500    0  0.00000000000E+00  0.00000000000E+00 -2.98248393700E+03  2.98248393700E+03  0.00000000000E+00  0.0000E+00  9.0
       13    1    1    2    0    0 -6.84881486210E+01  4.00530610770E+02 -2.38479022130E+03  2.41916097179E+03  1.05700000000E-01  0.0000E+00  9.0
      -13    1    1    2    0    0  6.84881486210E+01 -4.00530610770E+02 -5.09400228760E+02  6.51616452293E+02  1.05700000000E-01  0.0000E+00  9.0
</event>
<event>
 4    1   7.6478753E-02   1.0010000E+03  -1.0000000E+00   9.4080000E-02
       -1   -1    0    0    0  500  0.00000000000E+00  0.00000000000E+00  5.94775872510E+02  5.94775872510E+02  0.00000000000E+00  0.0000E+00  9.0
        1   -1    0    0  500    0  0.00000000000E+00  0.00000000000E+00 -4.21414108610E+02  4.21414108610E+02  0.00000000000E+00  0.0000E+00  9.0
       13    1    1    2    0    0  3.07222127270E+02  3.88848744220E+02  1.45020870140E+01  4.95781305684E+02  1.05700000000E-01  0.0000E+00  9.0
      -13    1    1    2    0    0 -3.07222127270E+02 -3.88848744220E+02  1.58859676880E+02  5.20408675443E+02  1.05700000000E-01  0.0000E+00  9.0
</event>
<event>
 4    1   7.6478753E-02   1.0050000E+03  -1.0000000E+00   9.4050000E-02
       -1   -1    0    0    0  500  0.00000000000E+00  0.00000000000E+00  9.93081570320E+01  9.93081570320E+01  0.00000000000E+00  0.0000E+00  9.0
        1   -1    0    0  500    0  0.00000000000E+00  0.00000000000E+00 -2.54148486370E+03  2.54148486370E+03  0.00000000000E+00  0.0000E+00  9.0
       13    1    1    2    0    0 -3.04872274020E+02  2.18544841540E+02 -2.09941934920E+03  2.13266747671E+03  1.05700000000E-01  0.0000E+00  9.0
      -13    1    1    2    0    0  3.04872274020E+02 -2.18544841540E+02 -3.42757357500E+02  5.08125544057E+02  1.05700000000E-01  0.0000E+00  9.0
</event>
<event>
 4    1   7.6478753E-02   1.0110000E+03  -1.0000000E+00   9.3980000E-02
       -1   -1    0    0    0  500  0.00000000000E+00  0.00000000000E+00  5.85546838290E+02  5.85546838290E+02  0.00000000000E+00  0.0000E+00  9.0
        1   -1    0    0  500    0  0.00000000000E+00  0.00000000000E+00 -4.36057093840E+02  4.36057093840E+02  0.00000000000E+00  0.0000E+00  9.0
       13    1    1    2    0    0 -1.33536225330E+02 -7.20437831830E+01  5.61974457100E+02  5.82097527719E+02  1.05700000000E-01  0.0000E+00  9.0
      -13    1    1    2    0    0  1.33536225330E+02  7.20437831830E+01 -4.12484712660E+02  4.39506404415E+02  1.05700000000E-01  0.0000E+00  9.0
</event>
<event>
 4    1   7.6478753E-02   1.0000000E+03  -1.0000000E+00   9.4100000E-02
        2   -1    0    0  500    0  0.00000000000E+00  0.00000000000E+00  4.42297834460E+02  4.42297834460E+02  0.00000000000E+00  0.0000E+00  9.0
       -2   -1    0    0    0  500  0.00000000000E+00  0.00000000000E+00 -5.65436984900E+02  5.65436984900E+02  0.00000000000E+00  0.0000E+00  9.0
       13    1    1    2    0    0  2.71887594930E+02 -4.06437385030E+02 -1.67133402470E+02  5.16766676190E+02  1.05700000000E-01  0.0000E+00  9.0
      -13    1    1    2    0    0 -2.71887594930E+02  4.06437385030E+02  4.39942520220E+01  4.90968143173E+02  1.05700000000E-01  0.0000E+00  9.0
</event>
<event>
 4    1   7.6478753E-02   9.9460000E+02  -1.0000000E+00   9.4160000E-02
       -1   -1    0    0    0  500  0.00000000000E+00  0.00000000000E+00  8.52650534480E+02  8.52650534480E+02  0.00000000000E+00  0.0000E+00  9.0
        1   -1    0    0  500    0  0.00000000000E+00  0.00000000000E+00 -2.90062040420E+02  2.90062040420E+02  0.00000000000E+00  0.0000E+00  9.0
       13    1    1    2    0    0 -1.31031138310E+02 -1.23017426710E+02 -2.51444817440E+02  3.09074350070E+02  1.05700000000E-01  0.0000E+00  9.0
      -13    1    1    2    0    0  1.31031138310E+02  1.23017426710E+02  8.14033311500E+02  8.33638224823E+02  1.05700000000E-01  0.0000E+00  9.0
</event>
<event>
 4    1   7.6478753E-02   9.8590000E+02  -1.0000000E+00   9.4250000E-02
        1   -1    0    0  500    0  0.00000000000E+00  0.00000000000E+00  1.05616806090E+03  1.05616806090E+03  0.00000000000E+00  0.0000E+00  9.0
       -1   -1    0    0    0  500  0.00000000000E+00  0.00000000000E+00 -2.30088303740E+02  2.30088303740E+02  0.00000000000E+00  0.0000E+00  9.0
       13    1    1    2    0    0 -4.23908571430E+02  1.07872350630E+02  7.09613377340E+02  8.33598271012E+02  1.05700000000E-01  0.0000E+00  9.0
      -13    1    1    2    0    0  4.23908571430E+02 -1.07872350630E+02  1.16466379870E+02  4.52658093681E+02  1.05700000000E-01  0.0000E+00  9.0
</event>
<event>
 4    1   7.6478753E-02   1.0000000E+03  -1.0000000E+00   9.4090000E-02
       -1   -1    0    0    0  500  0.00000000000E+00  0.00000000000E+00  1.17887235460E+02  1.17887235460E+02  0.00000000000E+00  0.0000E+00  9.0
        1   -1    0    0  500    0  0.00000000000E+00  0.00000000000E+00 -2.12223876680E+03  2.12223876680E+03  0.00000000000E+00  0.0000E+00  9.0
       13    1    1    2    0    0 -4.27986518600E+02 -1.23773737890E+02 -4.93049499020E+02  6.64522548866E+02  1.05700000000E-01  0.0000E+00  9.0
      -13    1    1    2    0    0  4.27986518600E+02  1.23773737890E+02 -1.51130203230E+03  1.57560345338E+03  1.05700000000E-01  0.0000E+00  9.0
</event>
<event>
 4    1   7.6478753E-02   1.0090000E+03  -1.0000000E+00   9.4000000E-02
       -1   -1    0    0    0  500  0.00000000000E+00  0.00000000000E+00  3.29472270640E+02  3.29472270640E+02  0.00000000000E+00  0.0000E+00  9.0
        1   -1    0    0  500    0  0.00000000000E+00  0.00000000000E+00 -7.72036959050E+02  7.72036959050E+02  0.00000000000E+00  0.0000E+00  9.0
       13    1    1    2    0    0  4.30592860570E+02 -2.57212271790E+02 -1.63535417330E+02  5.27553038307E+02  1.05700000000E-01  0.0000E+00  9.0
      -13    1    1    2    0    0 -4.30592860570E+02  2.57212271790E+02 -2.79029271090E+02  5.73956191386E+02  1.05700000000E-01  0.0000E+00  9.0
</event>
<event>
 4    1   7.6478753E-02   1.0120000E+03  -1.0000000E+00   9.3970000E-02
        1   -1    0    0  500    0  0.00000000000E+00  0.00000000000E+00  1.57700744640E+03  1.57700744640E+03  0.00000000000E+00  0.0000E+00  9.0
       -1   -1    0    0    0  500  0.00000000000E+00  0.00000000000E+00 -1.62244863200E+02  1.62244863200E+02  0.00000000000E+00  0.0000E+00  9.0
       13    1    1    2    0    0 -4.79516611720E+02 -1.42386271440E+02  5.78138895350E+02  7.64496320919E+02  1.05700000000E-01  0.0000E+00  9.0
      -13    1    1    2    0    0  4.79516611720E+02  1.42386271440E+02  8.36623687820E+02  9.74755988647E+02  1.05700000000E-01  0.0000E+00  9.0
</event>
<event>
 4    1   7.6478753E-02   1.0010000E+03  -1.0000000E+00   9.4090000E-02
       -1   -1    0    0    0  500  0.00000000000E+00  0.00000000000E+00  5.64829226510E+02  5.64829226510E+02  0.00000000000E+00  0.0000E+00  9.0
        1   -1    0    0  500    0  0.00000000000E+00  0.00000000000E+00 -4.43498728810E+02  4.43498728810E+02  0.00000000000E+00  0.0000E+00  9.0
       13    1    1    2    0    0 -2.21489974610E+02  8.23530892930E+01 -3.83768194700E+02  4.50686008885E+02  1.05700000000E-01  0.0000E+00  9.0
      -13    1    1    2    0    0  2.21489974610E+02 -8.23530892930E+01  5.05098692400E+02  5.57641946419E+02  1.05700000000E-01  0.0000E+00  9.0
</event>
<event>
 4    1   7.6478753E-02   1.0050000E+03  -1.0000000E+00   9.4040000E-02
        1   -1    0    0  500    0  0.00000000000E+00  0.00000000000E+00  7.49593126170E+02  7.49593126170E+02  0.00000000000E+00  0.0000E+00  9.0
       -1   -1    0    0    0  500  0.00000000000E+00  0.00000000000E+00 -3.37169032080E+02  3.37169032080E+02  0.00000000000E+00  0.0000E+00  9.0
       13    1    1    2    0    0  8.65939779970E+01 -3.07863204090E+02 -2.13044922980E+02  3.84273886490E+02  1.05700000000E-01  0.0000E+00  9.0
      -13    1    1    2    0    0 -8.65939779970E+01  3.07863204090E+02  6.25469017080E+02  7.02488271758E+02  1.05700000000E-01  0.0000E+00  9.0
</event>
<event>
 4    1   7.6478753E-02   1.0000000E+03  -1.0000000E+00   9.4090000E-02
       -1   -1    0    0    0  500  0.00000000000E+00  0.00000000000E+00  5.12058209680E+02  5.12058209680E+02  0.00000000000E+00  0.0000E+00  9.0
        1   -1    0    0  500    0  0.00000000000E+00  0.00000000000E+00 -4.88659943920E+02  4.88659943920E+02  0.00000000000E+00  0.0000E+00  9.0
       13    1    1    2    0    0  4.85781149080E+00 -5.80152901240E+01 -4.85259586100E+02  4.88739449293E+02  1.05700000000E-01  0.0000E+00  9.0
      -13    1    1    2    0    0 -4.85781149080E+00  5.80152901240E+01  5.08657851860E+02  5.11978704295E+02  1.05700000000E-01  0.0000E+00  9.0
</event>
<event>
 4    1   7.6478753E-02   1.0030000E+03  -1.0000000E+00   9.4060000E-02
       -2   -1    0    0    0  500  0.00000000000E+00  0.00000000000E+00  9.42130236880E+02  9.42130236880E+02  0.00000000000E+00  0.0000E+00  9.0
        2   -1    0    0  500    0  0.00000000000E+00  0.00000000000E+00 -2.67015494960E+02  2.67015494960E+02  0.00000000000E+00  0.0000E+00  9.0
       13    1    1    2    0    0 -1.42582838670E+02 -3.14529438610E+02 -1.00885111680E+02  3.59772776300E+02  1.05700000000E-01  0.0000E+00  9.0
      -13    1    1    2    0    0  1.42582838670E+02  3.14529438610E+02  7.75999853610E+02  8.49372955545E+02  1.05700000000E-01  0.0000E+00  9.0
</event>
<event>
 4    1   7.6478753E-02   1.0090000E+03  -1.0000000E+00   9.4010000E-02
       -1   -1    0    0    0  500  0.00000000000E+00  0.00000000000E+00  1.05855758130E+02  1.05855758130E+02  0.00000000000E+00  0.0000E+00  9.0
        1   -1    0    0  500    0  0.00000000000E+00  0.00000000000E+00 -2.40206640290E+03  2.40206640290E+03  0.00000000000E+00  0.0000E+00  9.0
       13    1    1    2    0    0  2.51694983570E+02  4.09079664830E+02 -7.66275819740E+02  9.04364517229E+02  1.05700000000E-01  0.0000E+00  9.0
      -13    1    1    2    0    0 -2.51694983570E+02 -4.09079664830E+02 -1.52993482500E+03  1.60355764376E+03  1.05700000000E-01  0.0000E+00  9.0
</event>
<event>
 4    1   7.6478753E-02   1.0010000E+03  -1.0000000E+00   9.4090000E-02
        1   -1    0    0  500    0  0.00000000000E+00  0.00000000000E+00  8.67315070740E+02  8.67315070740E+02  0.00000000000E+00  0.0000E+00  9.0
       -1   -1    0    0    0  500  0.00000000000E+00  0.00000000000E+00 -2.88911865730E+02  2.88911865730E+02  0.00000000000E+00  0.0000E+00  9.0
       13    1    1    2    0    0  3.63827535070E+02  1.02207954290E+02  6.68317571890E+02  7.67766454897E+02  1.05700000000E-01  0.0000E+00  9.0
      -13    1    1    2    0    0 -3.63827535070E+02 -1.02207954290E+02 -8.99143668810E+01  3.88460481567E+02  1.05700000000E-01  0.0000E+00  9.0
</event>
<event>
 4    1   7.6478753E-02   9.9560000E+02  -1.0000000E+00   9.4140000E-02
       -1   -1    0    0    0  500  0.00000000000E+00  0.00000000000E+00  3.75886885590E+02  3.75886885590E+02  0.00000000000E+00  0.0000E+00  9.0
        1   -1    0    0  500    0  0.00000000000E+00  0.00000000000E+00 -6.59319534610E+02  6.59319534610E+02  0.00000000000E+00  0.0000E+00  9.0
       13    1    1    2    0    0 -4.54092979100E+02  1.77378088700E+02 -3.68832447040E+01  4.88900608438E+02  1.05700000000E-01  0.0000E+00  9.0
      -13    1    1    2    0    0  4.54092979100E+02 -1.77378088700E+02 -2.46549404310E+02  5.46305811755E+02  1.05700000000E-01  0.0000E+00  9.0
</event>
<event>
 4    1   7.6478753E-02   1.0030000E+03  -1.0000000E+00   9.4060000E-02
       -2   -1    0    0    0  500  0.00000000000E+00  0.00000000000E+00  3.32214085810E+02  3.32214085810E+02  0.00000000000E+00  0.0000E+00  9.0
        2   -1    0    0  500    0  0.00000000000E+00  0.00000000000E+00 -7.57262993350E+02  7.57262993350E+02  0.00000000000E+00  0.0000E+00  9.0
       13    1    1    2    0    0 -3.68248371610E+02  9.81153666210E+01 -5.66688039680E+02  6.82912024971E+02  1.05700000000E-01  0.0000E+00  9.0
      -13    1    1    2    0    0  3.68248371610E+02 -9.81153666210E+01  1.41639132140E+02  4.06565054187E+02  1.05700000000E-01  0.0000E+00  9.0
</event>
<event>
 4    1   7.6478753E-02   9.3210000E+02  -1.0000000E+00   9.4860000E-02
        1   -1    0    0  500    0  0.00000000000E+00  0.00000000000E+00  1.49887055290E+03  1.49887055290E+03  0.00000000000E+00  0.0000E+00  9.0
       -1   -1    0    0    0  500  0.00000000000E+00  0.00000000000E+00 -1.44925241720E+02  1.44925241720E+02  0.00000000000E+00  0.0000E+00  9.0
       13    1    1    2    0    0 -2.58649240570E+00  4.38776201580E+02  3.99864043920E+02  5.93651842251E+02  1.05700000000E-01  0.0000E+00  9.0
      -13    1    1    2    0    0  2.58649240570E+00 -4.38776201580E+02  9.54081267280E+02  1.05014395240E+03  1.05700000000E-01  0.0000E+00  9.0
</event>
<event>
 4    1   7.6478753E-02   9.9460000E+02  -1.0000000E+00   9.4160000E-02
        1   -1    0    0  500    0  0.00000000000E+00  0.00000000000E+00  4.90011451830E+02  4.90011451830E+02  0.00000000000E+00  0.0000E+00  9.0
       -1   -1    0    0    0  500  0.00000000000E+00  0.00000000000E+00 -5.04717082110E+02  5.04717082110E+02  0.00000000000E+00  0.0000E+00  9.0
       13    1    1    2    0    0 -3.67248572720E+02 -2.82658415110E+02  1.73082659870E+02  4.94696788061E+02  1.05700000000E-01  0.0000E+00  9.0
      -13    1    1    2    0    0  3.67248572720E+02  2.82658415110E+02 -1.87788290140E+02  5.00031745876E+02  1.05700000000E-01  0.0000E+00  9.0
</event>
<event>
 4    1   7.6478753E-02   1.0020000E+03  -1.0000000E+00   9.4070000E-02
       -1   -1    0    0    0  500  0.00000000000E+00  0.00000000000E+00  1.31299604540E+02  1.31299604540E+02  0.00000000000E+00  0.0000E+00  9.0
        1   -1    0    0  500    0  0.00000000000E+00  0.00000000000E+00 -1.91272687210E+03  1.91272687210E+03  0.00000000000E+00  0.0000E+00  9.0
       13    1    1    2    0    0 -4.78293657760E+02 -1.57139219790E+01 -5.87342314590E+02  7.57616496704E+02  1.05700000000E-01  0.0000E+00  9.0
      -13    1    1    2    0    0  4.78293657760E+02  1.57139219790E+01 -1.19408495290E+03  1.28640997987E+03  1.05700000000E-01  0.0000E+00  9.0
</event>
<event>
 4    1   7.6478753E-02   9.9990000E+02  -1.0000000E+00   9.4100000E-02
       -3   -1    0    0    0  500  0.00000000000E+00  0.00000000000E+00  1.00754075770E+03  1.00754077755E+03  2.00000000000E-01  0.0000E+00  9.0
        3   -1    0    0  500    0  0.00000000000E+00  0.00000000000E+00 -2.48066222100E+02  2.48066302724E+02  2.00000000000E-01  0.0000E+00  9.0
       13    1    1    2    0    0  3.69853953940E+02  2.77759685480E+02  1.41490730840E+02  4.83696214797E+02  1.05700000000E-01  0.0000E+00  9.0
      -13    1    1    2    0    0 -3.69853953940E+02 -2.77759685480E+02  6.17983804770E+02  7.71910865485E+02  1.05700000000E-01  0.0000E+00  9.0
</event>
<event>
 4    1   7.6478753E-02   9.9970000E+02  -1.0000000E+00   9.4100000E-02
       -3   -1    0    0    0  500  0.00000000000E+00  0.00000000000E+00  2.70863900420E+02  2.70863974258E+02  2.00000000000E-01  0.0000E+00  9.0
        3   -1    0    0  500    0  0.00000000000E+00  0.00000000000E+00 -9.22393806240E+02  9.22393827923E+02  2.00000000000E-01  0.0000E+00  9.0
       13    1    1    2    0    0 -2.35765202360E+02  3.23914550310E+02  3.10039968220E+01  4.01829722069E+02  1.05700000000E-01  0.0000E+00  9.0
      -13    1    1    2    0    0  2.35765202360E+02 -3.23914550310E+02 -6.82533902650E+02  7.91428080109E+02  1.05700000000E-01  0.0000E+00  9.0
</event>
<event>
 4    1   7.6478753E-02   1.0000000E+03  -1.0000000E+00   9.4090000E-02
        1   -1    0    0  500    0  0.00000000000E+00  0.00000000000E+00  1.94579030520E+02  1.94579030520E+02  0.00000000000E+00  0.0000E+00  9.0
       -1   -1    0    0    0  500  0.00000000000E+00  0.00000000000E+00 -1.28599743160E+03  1.28599743160E+03  0.00000000000E+00  0.0000E+00  9.0
       13    1    1    2    0    0  4.31275659520E+02  1.91921592360E+02 -7.90656486570E+02  9.20853019236E+02  1.05700000000E-01  0.0000E+00  9.0
      -13    1    1    2    0    0 -4.31275659520E+02 -1.91921592360E+02 -3.00761914480E+02  5.59723442856E+02  1.05700000000E-01  0.0000E+00  9.0
</event>
<event>
 4    1   7.6478753E-02   1.0080000E+03  -1.0000000E+00   9.4010000E-02
        1   -1    0    0  500    0  0.00000000000E+00  0.00000000000E+00  2.88371493260E+02  2.88371493260E+02  0.00000000000E+00  0.0000E+00  9.0
       -1   -1    0    0    0  500  0.00000000000E+00  0.00000000000E+00 -8.80381182320E+02  8.80381182320E+02  0.00000000000E+00  0.0000E+00  9.0
       13    1    1    2    0    0  4.42187543910E+01 -4.74704649210E+02 -4.85079905060E+02  6.80148754088E+02  1.05700000000E-01  0.0000E+00  9.0
      -13    1    1    2    0    0 -4.42187543910E+01  4.74704649210E+02 -1.06929784010E+02  4.88603921497E+02  1.05700000000E-01  0.0000E+00  9.0
</event>
<event>
 4    1   7.6478753E-02   9.9790000E+02  -1.0000000E+00   9.4120000E-02
        1   -1    0    0  500    0  0.00000000000E+00  0.00000000000E+00  9.42864395450E+02  9.42864395450E+02  0.00000000000E+00  0.0000E+00  9.0
       -1   -1    0    0    0  500  0.00000000000E+00  0.00000000000E+00 -2.64051074150E+02  2.64051074150E+02  0.00000000000E+00  0.0000E+00  9.0
       13    1    1    2    0    0 -4.29285769990E+02  2.44315861720E+02  2.53991648640E+02  5.55417213773E+02  1.05700000000E-01  0.0000E+00  9.0
      -13    1    1    2    0    0  4.29285769990E+02 -2.44315861720E+02  4.24821672660E+02  6.51498255821E+02  1.05700000000E-01  0.0000E+00  9.0
</event>
<event>
 4    1   7.6478753E-02   1.0000000E+03  -1.0000000E+00   9.4100000E-02
        2   -1    0    0  500    0  0.00000000000E+00  0.00000000000E+00  7.32124696890E+02  7.32124696890E+02  0.00000000000E+00  0.0000E+00  9.0
       -2   -1    0    0    0  500  0.00000000000E+00  0.00000000000E+00 -3.41620493580E+02  3.41620493580E+02  0.00000000000E+00  0.0000E+00  9.0
       13    1    1    2    0    0 -3.19124560000E+02 -6.70909334390E+01  6.02291569830E+02  6.84906434782E+02  1.05700000000E-01  0.0000E+00  9.0
      -13    1    1    2    0    0  3.19124560000E+02  6.70909334390E+01 -2.11787366520E+02  3.88838755701E+02  1.05700000000E-01  0.0000E+00  9.0
</event>
<event>
 4    1   7.6478753E-02   9.8710000E+02  -1.0000000E+00   9.4240000E-02
        2   -1    0    0  500    0  0.00000000000E+00  0.00000000000E+00  4.35957066090E+02  4.35957066090E+02  0.00000000000E+00  0.0000E+00  9.0
       -2   -1    0    0    0  500  0.00000000000E+00  0.00000000000E+00 -5.58798154330E+02  5.58798154330E+02  0.00000000000E+00  0.0000E+00  9.0
       13    1    1    2    0    0  1.50188063090E+02  4.16763018590E+02  1.57891078150E+02  4.70295090014E+02  1.05700000000E-01  0.0000E+00  9.0
      -13    1    1    2    0    0 -1.50188063090E+02 -4.16763018590E+02 -2.80732166400E+02  5.24460130404E+02  1.05700000000E-01  0.0000E+00  9.0
</event>
<event>
 4    1   7.6478753E-02   1.0020000E+03  -1.0000000E+00   9.4080000E-02
        3   -1    0    0  500    0  0.00000000000E+00  0.00000000000E+00  1.40661412900E+03  1.40661414322E+03  2.00000000000E-01  0.0000E+00  9.0
       -3   -1    0    0    0  500  0.00000000000E+00  0.00000000000E+00 -1.78290403140E+02  1.78290515317E+02  2.00000000000E-01  0.0000E+00  9.0
       13    1    1    2    0    0  4.40952433870E+02  2.37321634590E+02  6.06205278680E+02  7.86285862936E+02  1.05700000000E-01  0.0000E+00  9.0
      -13    1    1    2    0    0 -4.40952433870E+02 -2.37321634590E+02  6.22118447180E+02  7.98618795593E+02  1.05700000000E-01  0.0000E+00  9.0
</event>
<event>
 4    1   7.6478753E-02   1.0040000E+03  -1.0000000E+00   9.4060000E-02
       -1   -1    0    0    0  500  0.00000000000E+00  0.00000000000E+00  9.17835132100E+01  9.17835132100E+01  0.00000000000E+00  0.0000E+00  9.0
        1   -1    0    0  500    0  0.00000000000E+00  0.00000000000E+00 -2.74365066850E+03  2.74365066850E+03  0.00000000000E+00  0.0000E+00  9.0
       13    1    1    2    0    0  1.19667428470E+02  2.28668020710E+02 -2.54177800890E+03  2.55484731732E+03  1.05700000000E-01  0.0000E+00  9.0
      -13    1    1    2    0    0 -1.19667428470E+02 -2.28668020710E+02 -1.10089146370E+02  2.80586864363E+02  1.05700000000E-01  0.0000E+00  9.0
</event>
<event>
 4    1   7.6478753E-02   1.0020000E+03  -1.0000000E+00   9.4070000E-02
        2   -1    0    0  500    0  0.00000000000E+00  0.00000000000E+00  1.84942321100E+03  1.84942321100E+03  0.00000000000E+00  0.0000E+00  9.0
       -2   -1    0    0    0  500  0.00000000000E+00  0.00000000000E+00 -1.35795474360E+02  1.35795474360E+02  0.00000000000E+00  0.0000E+00  9.0
       13    1    1    2    0    0 -3.80268334370E+02  1.10701725450E+02  2.48626341620E+02  4.67625862268E+02  1.05700000000E-01  0.0000E+00  9.0
      -13    1    1    2    0    0  3.80268334370E+02 -1.10701725450E+02  1.46500139500E+03  1.51759282308E+03  1.05700000000E-01  0.0000E+00  9.0
</event>
<event>
 4    1   7.6478753E-02   1.0070000E+03  -1.0000000E+00   9.4030000E-02
       -1   -1    0    0    0  500  0.00000000000E+00  0.00000000000E+00  1.57240445220E+02  1.57240445220E+02  0.00000000000E+00  0.0000E+00  9.0
        1   -1    0    0  500    0  0.00000000000E+00  0.00000000000E+00 -1.61101132480E+03  1.61101132480E+03  0.00000000000E+00  0.0000E+00  9.0
       13    1    1    2    0    0  3.93447007010E+01 -4.27710844520E+00 -1.60827371240E+03  1.60876059260E+03  1.05700000000E-01  0.0000E+00  9.0
      -13    1    1    2    0    0 -3.93447007010E+01  4.27710844520E+00  1.54502832850E+02  1.59491177377E+02  1.05700000000E-01  0.0000E+00  9.0
</event>
<event>
 4    1   7.6478753E-02   1.0030000E+03  -1.0000000E+00   9.4060000E-02
       -1   -1    0    0    0  500  0.00000000000E+00  0.00000000000E+00  5.37141940170E+02  5.37141940170E+02  0.00000000000E+00  0.0000E+00  9.0
        1   -1    0    0  500    0  0.00000000000E+00  0.00000000000E+00 -4.68500371250E+02  4.68500371250E+02  0.00000000000E+00  0.0000E+00  9.0
       13    1    1    2    0    0 -3.66624151610E+02  1.34753575560E+02  3.49825393560E+02  5.24356378641E+02  1.05700000000E-01  0.0000E+00  9.0
      -13    1    1    2    0    0  3.66624151610E+02 -1.34753575560E+02 -2.81183824640E+02  4.81285932769E+02  1.05700000000E-01  0.0000E+00  9.0
</event>
<event>
 4    1   7.6478753E-02   1.0260000E+03  -1.0000000E+00   9.3820000E-02
       -1   -1    0    0    0  500  0.00000000000E+00  0.00000000000E+00  5.65668749150E+02  5.65668749150E+02  0.00000000000E+00  0.0000E+00  9.0
        1   -1    0    0  500    0  0.00000000000E+00  0.00000000000E+00 -4.65376521990E+02  4.65376521990E+02  0.00000000000E+00  0.0000E+00  9.0
       13    1    1    2    0    0  1.71591231650E+02  6.72528102070E+00  5.35937334870E+02  5.62776703733E+02  1.05700000000E-01  0.0000E+00  9.0
      -13    1    1    2    0    0 -1.71591231650E+02 -6.72528102070E+00 -4.35645107710E+02  4.68268567414E+02  1.05700000000E-01  0.0000E+00  9.0
</event>
<event>
 4    1   7.6478753E-02   9.9640000E+02  -1.0000000E+00   9.4140000E-02
       -1   -1    0    0    0  500  0.00000000000E+00  0.00000000000E+00  1.97415817820E+02  1.97415817820E+02  0.00000000000E+00  0.0000E+00  9.0
        1   -1    0    0  500    0  0.00000000000E+00  0.00000000000E+00 -1.25726147670E+03  1.25726147670E+03  0.00000000000E+00  0.0000E+00  9.0
       13    1    1    2    0    0 -9.24996810280E+01  4.89426567040E+02 -5.14699156020E+02  7.16247015976E+02  1.05700000000E-01  0.0000E+00  9.0
      -13    1    1    2    0    0  9.24996810280E+01 -4.89426567040E+02 -5.45146502850E+02  7.38430278535E+02  1.05700000000E-01  0.0000E+00  9.0
</event>
<event>
 4    1   7.6478753E-02   9.0910000E+02  -1.0000000E+00   9.5140000E-02
        2   -1    0    0  500    0  0.00000000000E+00  0.00000000000E+00  3.60679113460E+02  3.60679113460E+02  0.00000000000E+00  0.0000E+00  9.0
       -2   -1    0    0    0  500  0.00000000000E+00  0.00000000000E+00 -5.72795759930E+02  5.72795759930E+02  0.00000000000E+00  0.0000E+00  9.0
       13    1    1    2    0    0  9.55315580050E+01  2.23759352080E+02 -5.00299837110E+02  5.56322266679E+02  1.05700000000E-01  0.0000E+00  9.0
      -13    1    1    2    0    0 -9.55315580050E+01 -2.23759352080E+02  2.88183190640E+02  3.77152606723E+02  1.05700000000E-01  0.0000E+00  9.0
</event>
<event>
 4    1   7.6478753E-02   9.9590000E+02  -1.0000000E+00   9.4140000E-02
        1   -1    0    0  500    0  0.00000000000E+00  0.00000000000E+00  1.34978110850E+03  1.34978110850E+03  0.00000000000E+00  0.0000E+00  9.0
       -1   -1    0    0    0  500  0.00000000000E+00  0.00000000000E+00 -1.83709903870E+02  1.83709903870E+02  0.00000000000E+00  0.0000E+00  9.0
       13    1    1    2    0    0  2.24224942220E+01  2.43999573330E+02 -8.44637685240E+01  2.59176965408E+02  1.05700000000E-01  0.0000E+00  9.0
      -13    1    1    2    0    0 -2.24224942220E+01 -2.43999573330E+02  1.25053497320E+03  1.27431404701E+03  1.05700000000E-01  0.0000E+00  9.0
</event>
<event>
 4    1   7.6478753E-02   1.0080000E+03  -1.0000000E+00   9.4010000E-02
        1   -1    0    0  500    0  0.00000000000E+00  0.00000000000E+00  1.84648824220E+02  1.84648824220E+02  0.00000000000E+00  0.0000E+00  9.0
       -1   -1    0    0    0  500  0.00000000000E+00  0.00000000000E+00 -1.37558515840E+03  1.37558515840E+03  0.00000000000E+00  0.0000E+00  9.0
       13    1    1    2    0    0  4.87294066840E+02 -9.24116196150E+01 -4.56978691660E+02  6.74407110595E+02  1.05700000000E-01  0.0000E+00  9.0
      -13    1    1    2    0    0 -4.87294066840E+02  9.24116196150E+01 -7.33957642560E+02  8.85826872059E+02  1.05700000000E-01  0.0000E+00  9.0
</event>
<event>
 4    1   7.6478753E-02   9.9990000E+02  -1.0000000E+00   9.4100000E-02
       -1   -1    0    0    0  500  0.00000000000E+00  0.00000000000E+00  8.24322762690E+01  8.24322762690E+01  0.00000000000E+00  0.0000E+00  9.0
        1   -1    0    0  500    0  0.00000000000E+00  0.00000000000E+00 -3.03194199100E+03  3.03194199100E+03  0.00000000000E+00  0.0000E+00  9.0
       13    1    1    2    0    0 -3.46572920480E+02 -2.46832110340E+02 -6.57207487950E+02  7.82917986315E+02  1.05700000000E-01  0.0000E+00  9.0
      -13    1    1    2    0    0  3.46572920480E+02  2.46832110340E+02 -2.29230222670E+03  2.33145628087E+03  1.05700000000E-01  0.0000E+00  9.0
</event>
<event>
 4    1   7.6478753E-02   1.0000000E+03  -1.0000000E+00   9.4090000E-02
        1   -1    0    0  500    0  0.00000000000E+00  0.00000000000E+00  5.02388623170E+02  5.02388623170E+02  0.00000000000E+00  0.0000E+00  9.0
       -1   -1    0    0    0  500  0.00000000000E+00  0.00000000000E+00 -4.97957138320E+02  4.97957138320E+02  0.00000000000E+00  0.0000E+00  9.0
       13    1    1    2    0    0 -1.77568139090E+02  3.27493187440E+02  3.35964066830E+02  5.01651370189E+02  1.05700000000E-01  0.0000E+00  9.0
      -13    1    1    2    0    0  1.77568139090E+02 -3.27493187440E+02 -3.31532581980E+02  4.98694391312E+02  1.05700000000E-01  0.0000E+00  9.0
</event>
<event>
 4    1   7.6478753E-02   1.0010000E+03  -1.0000000E+00   9.4090000E-02
       -1   -1    0    0    0  500  0.00000000000E+00  0.00000000000E+00  1.80852051690E+02  1.80852051690E+02  0.00000000000E+00  0.0000E+00  9.0
        1   -1    0    0  500    0  0.00000000000E+00  0.00000000000E+00 -1.38511851000E+03  1.38511851000E+03  0.00000000000E+00  0.0000E+00  9.0
       13    1    1    2    0    0 -4.15891262840E+02  1.43467769460E+02 -2.28791444570E+02  4.95877081202E+02  1.05700000000E-01  0.0000E+00  9.0
      -13    1    1    2    0    0  4.15891262840E+02 -1.43467769460E+02 -9.75475013740E+02  1.07009348049E+03  1.05700000000E-01  0.0000E+00  9.0
</event>
<event>
 4    1   7.6478753E-02   1.0420000E+03  -1.0000000E+00   9.3660000E-02
        1   -1    0    0  500    0  0.00000000000E+00  0.00000000000E+00  3.52314842380E+02  3.52314842380E+02  0.00000000000E+00  0.0000E+00  9.0
       -1   -1    0    0    0  500  0.00000000000E+00  0.00000000000E+00 -7.69951431700E+02  7.69951431700E+02  0.00000000000E+00  0.0000E+00  9.0
       13    1    1    2    0    0  5.40444338740E+01  4.58421275370E+02 -4.68720237560E+02  6.57852216547E+02  1.05700000000E-01  0.0000E+00  9.0
      -13    1    1    2    0    0 -5.40444338740E+01 -4.58421275370E+02  5.10836482380E+01  4.64414057533E+02  1.05700000000E-01  0.0000E+00  9.0
</event>
<event>
 4    1   7.6478753E-02   9.9690000E+02  -1.0000000E+00   9.4130000E-02
       -1   -1    0    0    0  500  0.00000000000E+00  0.00000000000E+00  8.79605331050E+02  8.79605331050E+02  0.00000000000E+00  0.0000E+00  9.0
        1   -1    0    0  500    0  0.00000000000E+00  0.00000000000E+00 -2.82430870020E+02  2.82430870020E+02  0.00000000000E+00  0.0000E+00  9.0
       13    1    1    2    0    0  3.93419507310E+02  3.00809646470E+02  3.64140390690E+02  6.14706098429E+02  1.05700000000E-01  0.0000E+00  9.0
      -13    1    1    2    0    0 -3.93419507310E+02 -3.00809646470E+02  2.33034070340E+02  5.47330102637E+02  1.05700000000E-01  0.0000E+00  9.0
</event>
<event>
 4    1   7.6478753E-02   9.9940000E+02  -1.0000000E+00   9.4100000E-02
       -1   -1    0    0    0  500  0.00000000000E+00  0.00000000000E+00  4.15606747780E+02  4.15606747780E+02  0.00000000000E+00  0.0000E+00  9.0
        1   -1    0    0  500    0  0.00000000000E+00  0.00000000000E+00 -6.00855019430E+02  6.00855019430E+02  0.00000000000E+00  0.0000E+00  9.0
       13    1    1    2    0    0  6.15813870550E+01 -1.29301170940E+02  3.94287449670E+02  4.19492150317E+02  1.05700000000E-01  0.0000E+00  9.0
      -13    1    1    2    0    0 -6.15813870550E+01  1.29301170940E+02 -5.79535721310E+02  5.96969616886E+02  1.05700000000E-01  0.0000E+00  9.0
</event>
<event>
 4    1   7.6478753E-02   1.0060000E+03  -1.0000000E+00   9.4040000E-02
       -2   -1    0    0    0  500  0.00000000000E+00  0.00000000000E+00  4.68322195580E+02  4.68322195580E+02  0.00000000000E+00  0.0000E+00  9.0
        2   -1    0    0  500    0  0.00000000000E+00  0.00000000000E+00 -5.39734496640E+02  5.39734496640E+02  0.00000000000E+00  0.0000E+00  9.0
       13    1    1    2    0    0 -4.39364500700E+02  1.56843448570E+02 -2.23604486010E+02  5.17339355908E+02  1.05700000000E-01  0.0000E+00  9.0
      -13    1    1    2    0    0  4.39364500700E+02 -1.56843448570E+02  1.52192184940E+02  4.90717336319E+02  1.05700000000E-01  0.0000E+00  9.0
</event>
<event>
 4    1   7.6478753E-02   9.9360000E+02  -1.0000000E+00   9.4170000E-02
        1   -1    0    0  500    0  0.00000000000E+00  0.00000000000E+00  5.97466187290E+02  5.97466187290E+02  0.00000000000E+00  0.0000E+00  9.0
       -1   -1    0    0    0  500  0.00000000000E+00  0.00000000000E+00 -4.13087850080E+02  4.13087850080E+02  0.00000000000E+00  0.0000E+00  9.0
       13    1    1    2    0    0 -2.25727577770E+02 -4.12057975090E+02 -7.20019589640E+01  4.75319900139E+02  1.05700000000E-01  0.0000E+00  9.0
      -13    1    1    2    0    0  2.25727577770E+02  4.12057975090E+02  2.56380296180E+02  5.35234137218E+02  1.05700000000E-01  0.0000E+00  9.0
</event>
<event>
 4    1   7.6478753E-02   9.7270000E+02  -1.0000000E+00   9.4400000E-02
        1   -1    0    0  500    0  0.00000000000E+00  0.00000000000E+00  1.10591694680E+03  1.10591694680E+03  0.00000000000E+00  0.0000E+00  9.0
       -1   -1    0    0    0  500  0.00000000000E+00  0.00000000000E+00 -2.13872988670E+02  2.13872988670E+02  0.00000000000E+00  0.0000E+00  9.0
       13    1    1    2    0    0  1.65034156950E+00 -2.30602189190E+02  1.02701498680E+03  1.05258723514E+03  1.05700000000E-01  0.0000E+00  9.0
      -13    1    1    2    0    0 -1.65034156950E+00  2.30602189190E+02 -1.34971028710E+02  2.67202700305E+02  1.05700000000E-01  0.0000E+00  9.0
</event>
<event>
 4    1   7.6478753E-02   1.0030000E+03  -1.0000000E+00   9.4070000E-02
        1   -1    0    0  500    0  0.00000000000E+00  0.00000000000E+00  1.20607815060E+03  1.20607815060E+03  0.00000000000E+00  0.0000E+00  9.0
       -1   -1    0    0    0  500  0.00000000000E+00  0.00000000000E+00 -2.08376918180E+02  2.08376918180E+02  0.00000000000E+00  0.0000E+00  9.0
       13    1    1    2    0    0  2.35216284000E+01 -2.16116317530E+02 -1.38421379660E+02  2.57720816437E+02  1.05700000000E-01  0.0000E+00  9.0
      -13    1    1    2    0    0 -2.35216284000E+01  2.16116317530E+02  1.13612261210E+03  1.15673425237E+03  1.05700000000E-01  0.0000E+00  9.0
</event>
<event>
 4    1   7.6478753E-02   9.9000000E+02  -1.0000000E+00   9.4210000E-02
       -2   -1    0    0    0  500  0.00000000000E+00  0.00000000000E+00  6.42260505170E+02  6.42260505170E+02  0.00000000000E+00  0.0000E+00  9.0
        2   -1    0    0  500    0  0.00000000000E+00  0.00000000000E+00 -3.81522517580E+02  3.81522517580E+02  0.00000000000E+00  0.0000E+00  9.0
       13    1    1    2    0    0  1.47370274330E+02  4.72323443510E+02  1.14706548590E+02  5.07902585647E+02  1.05700000000E-01  0.0000E+00  9.0
      -13    1    1    2    0    0 -1.47370274330E+02 -4.72323443510E+02  1.46031439000E+02  5.15880437111E+02  1.05700000000E-01  0.0000E+00  9.0
</event>
<event>
 4    1   7.6478753E-02   1.0020000E+03  -1.0000000E+00   9.4070000E-02
        2   -1    0    0  500    0  0.00000000000E+00  0.00000000000E+00  1.86963938790E+03  1.86963938790E+03  0.00000000000E+00  0.0000E+00  9.0
       -2   -1    0    0    0  500  0.00000000000E+00  0.00000000000E+00 -1.34284340880E+02  1.34284340880E+02  0.00000000000E+00  0.0000E+00  9.0
       13    1    1    2    0    0 -2.51489379640E+02 -3.45791554560E+02  1.39006607050E+03  1.45433916223E+03  1.05700000000E-01  0.0000E+00  9.0
      -13    1    1    2    0    0  2.51489379640E+02  3.45791554560E+02  3.45288976440E+02  5.49584566468E+02  1.05700000000E-01  0.0000E+00  9.0
</event>
<event>
 4    1   7.6478753E-02   1.0010000E+03  -1.0000000E+00   9.4090000E-02
       -1   -1    0    0    0  500  0.00000000000E+00  0.00000000000E+00  1.09048009960E+02  1.09048009960E+02  0.00000000000E+00  0.0000E+00  9.0
        1   -1    0    0  500    0  0.00000000000E+00  0.00000000000E+00 -2.29748463610E+03  2.29748463610E+03  0.00000000000E+00  0.0000E+00  9.0
       13    1    1    2    0    0 -1.63055794190E+02  4.27308126700E+02 -1.58309515300E+03  1.64783788699E+03  1.05700000000E-01  0.0000E+00  9.0
      -13    1    1    2    0    0  1.63055794190E+02 -4.27308126700E+02 -6.05341473160E+02  7.58694759085E+02  1.05700000000E-01  0.0000E+00  9.0
</event>
<event>
 4    1   7.6478753E-02   1.0010000E+03  -1.0000000E+00   9.4090000E-02
       -1   -1    0    0    0  500  0.00000000000E+00  0.00000000000E+00  1.35854876170E+02  1.35854876170E+02  0.00000000000E+00  0.0000E+00  9.0
        1   -1    0    0  500    0  0.00000000000E+00  0.00000000000E+00 -1.84213016490E+03  1.84213016490E+03  0.00000000000E+00  0.0000E+00  9.0
       13    1    1    2    0    0 -3.80951576990E+02 -3.15787479190E+02 -7.07640208450E+02  8.63481622162E+02  1.05700000000E-01  0.0000E+00  9.0
      -13    1    1    2    0    0  3.80951576990E+02  3.15787479190E+02 -9.98635080310E+02  1.11450341894E+03  1.05700000000E-01  0.0000E+00  9.0
</event>
<event>
 4    1   7.6478753E-02   1.0850000E+03  -1.0000000E+00   9.3230000E-02
        3   -1    0    0  500    0  0.00000000000E+00  0.00000000000E+00  1.74518847840E+02  1.74518962441E+02  2.00000000000E-01  0.0000E+00  9.0
       -3   -1    0    0    0  500  0.00000000000E+00  0.00000000000E+00 -1.68495361870E+03  1.68495363057E+03  2.00000000000E-01  0.0000E+00  9.0
       13    1    1    2    0    0 -3.77608446780E+00  2.82079640130E+02  3.88017303550E+01  2.84760895561E+02  1.05700000000E-01  0.0000E+00  9.0
      -13    1    1    2    0    0  3.77608446780E+00 -2.82079640130E+02 -1.54923650120E+03  1.57471169743E+03  1.05700000000E-01  0.0000E+00  9.0
</event>
<event>
 4    1   7.6478753E-02   9.9690000E+02  -1.0000000E+00   9.4130000E-02
       -1   -1    0    0    0  500  0.00000000000E+00  0.00000000000E+00  2.86849144300E+02  2.86849144300E+02  0.00000000000E+00  0.0000E+00  9.0
        1   -1    0    0  500    0  0.00000000000E+00  0.00000000000E+00 -8.66068235410E+02  8.66068235410E+02  0.00000000000E+00  0.0000E+00  9.0
       13    1    1    2    0    0  2.98541961940E+02 -3.36053187980E+02 -4.05560313540E+01  4.51335630149E+02  1.05700000000E-01  0.0000E+00  9.0
      -13    1    1    2    0    0 -2.98541961940E+02  3.36053187980E+02 -5.38663059750E+02  7.01581749550E+02  1.05700000000E-01  0.0000E+00  9.0
</event>
<event>
 4    1   7.6478753E-02   9.9990000E+02  -1.0000000E+00   9.4100000E-02
       -1   -1    0    0    0  500  0.00000000000E+00  0.00000000000E+00  2.04219078270E+02  2.04219078270E+02  0.00000000000E+00  0.0000E+00  9.0
        1   -1    0    0  500    0  0.00000000000E+00  0.00000000000E+00 -1.22386571950E+03  1.22386571950E+03  0.00000000000E+00  0.0000E+00  9.0
       13    1    1    2    0    0  3.20258830600E+02 -1.01959229230E+02  1.87802753950E+01  3.36621616832E+02  1.05700000000E-01  0.0000E+00  9.0
      -13    1    1    2    0    0 -3.20258830600E+02  1.01959229230E+02 -1.03842691660E+03  1.09146318092E+03  1.05700000000E-01  0.0000E+00  9.0
</event>
<event>
 4    1   7.6478753E-02   9.9750000E+02  -1.0000000E+00   9.4120000E-02
       -1   -1    0    0    0  500  0.00000000000E+00  0.00000000000E+00  1.02641399960E+02  1.02641399960E+02  0.00000000000E+00  0.0000E+00  9.0
        1   -1    0    0  500    0  0.00000000000E+00  0.00000000000E+00 -2.42357054300E+03  2.42357054300E+03  0.00000000000E+00  0.0000E+00  9.0
       13    1    1    2    0    0 -1.68769652120E+02 -3.52450752850E+02 -1.94535358430E+03  1.98421402772E+03  1.05700000000E-01  0.0000E+00  9.0
      -13    1    1    2    0    0  1.68769652120E+02  3.52450752850E+02 -3.75575558790E+02  5.41997915304E+02  1.05700000000E-01  0.0000E+00  9.0
</event>
<event>
 4    1   7.6478753E-02   9.9160000E+02  -1.0000000E+00   9.4190000E-02
        2   -1    0    0  500    0  0.00000000000E+00  0.00000000000E+00  2.91347561670E+02  2.91347561670E+02  0.00000000000E+00  0.0000E+00  9.0
       -2   -1    0    0    0  500  0.00000000000E+00  0.00000000000E+00 -8.43677627250E+02  8.43677627250E+02  0.00000000000E+00  0.0000E+00  9.0
       13    1    1    2    0    0  2.65642635000E+02 -2.51892865470E+02  1.06552130290E+02  3.81273383344E+02  1.05700000000E-01  0.0000E+00  9.0
      -13    1    1    2    0    0 -2.65642635000E+02  2.51892865470E+02 -6.58882195870E+02  7.53751805578E+02  1.05700000000E-01  0.0000E+00  9.0
</event>
<event>
 4    1   7.6478753E-02   1.0510000E+03  -1.0000000E+00   9.3560000E-02
        3   -1    0    0  500    0  0.00000000000E+00  0.00000000000E+00  5.07227094630E+02  5.07227134060E+02  2.00000000000E-01  0.0000E+00  9.0
       -3   -1    0    0    0  500  0.00000000000E+00  0.00000000000E+00 -5.44361050320E+02  5.44361087060E+02  2.00000000000E-01  0.0000E+00  9.0
       13    1    1    2    0    0  8.73510056360E+01  3.46725331190E+02 -4.03860582000E+02  5.39399698128E+02  1.05700000000E-01  0.0000E+00  9.0
      -13    1    1    2    0    0 -8.73510056360E+01 -3.46725331190E+02  3.66726626310E+02  5.12188522999E+02  1.05700000000E-01  0.0000E+00  9.0
</event>
<event>
 4    1   7.6478753E-02   9.9640000E+02  -1.0000000E+00   9.4140000E-02
        5   -1    0    0  500    0  0.00000000000E+00  0.00000000000E+00  1.49221692600E+02  1.49283634543E+02  4.30000000000E+00  0.0000E+00  9.0
       -5   -1    0    0    0  500  0.00000000000E+00  0.00000000000E+00 -1.66285265590E+03  1.66285821561E+03  4.30000000000E+00  0.0000E+00  9.0
       13    1    1    2    0    0 -4.88227082610E+02 -9.63007010240E+01 -7.99674325820E+02  9.41869708484E+02  1.05700000000E-01  0.0000E+00  9.0
      -13    1    1    2    0    0  4.88227082610E+02  9.63007010240E+01 -7.13956637520E+02  8.70272141714E+02  1.05700000000E-01  0.0000E+00  9.0
</event>
<event>
 4    1   7.6478753E-02   1.0040000E+03  -1.0000000E+00   9.4050000E-02
       -1   -1    0    0    0  500  0.00000000000E+00  0.00000000000E+00  3.44247928290E+02  3.44247928290E+02  0.00000000000E+00  0.0000E+00  9.0
        1   -1    0    0  500    0  0.00000000000E+00  0.00000000000E+00 -7.32346883640E+02  7.32346883640E+02  0.00000000000E+00  0.0000E+00  9.0
       13    1    1    2    0    0  2.60616671270E+02 -4.25595696550E+02 -2.53316734480E+02  5.59662510274E+02  1.05700000000E-01  0.0000E+00  9.0
      -13    1    1    2    0    0 -2.60616671270E+02  4.25595696550E+02 -1.34782220870E+02  5.16932301661E+02  1.05700000000E-01  0.0000E+00  9.0
</event>
<event>
 4    1   7.6478753E-02   9.9950000E+02  -1.0000000E+00   9.4100000E-02
        1   -1    0    0  500    0  0.00000000000E+00  0.00000000000E+00  1.87806960230E+02  1.87806960230E+02  0.00000000000E+00  0.0000E+00  9.0
       -1   -1    0    0    0  500  0.00000000000E+00  0.00000000000E+00 -1.32989321500E+03  1.32989321500E+03  0.00000000000E+00  0.0000E+00  9.0
       13    1    1    2    0    0  9.46724320640E+01 -2.06748402590E+02  1.04705430020E+02  2.50341785594E+02  1.05700000000E-01  0.0000E+00  9.0
      -13    1    1    2    0    0 -9.46724320640E+01  2.06748402590E+02 -1.24679168480E+03  1.26735838965E+03  1.05700000000E-01  0.0000E+00  9.0
</event>
<event>
 4    1   7.6478753E-02   9.9640000E+02  -1.0000000E+00   9.4140000E-02
        1   -1    0    0  500    0  0.00000000000E+00  0.00000000000E+00  5.86651929170E+02  5.86651929170E+02  0.00000000000E+00  0.0000E+00  9.0
       -1   -1    0    0    0  500  0.00000000000E+00  0.00000000000E+00 -4.23087371730E+02  4.23087371730E+02  0.00000000000E+00  0.0000E+00  9.0
       13    1    1    2    0    0  1.54467541780E+02  2.21388718820E+02 -3.42548328320E+02  4.36133643155E+02  1.05700000000E-01  0.0000E+00  9.0
      -13    1    1    2    0    0 -1.54467541780E+02 -2.21388718820E+02  5.06112885760E+02  5.73605657738E+02  1.05700000000E-01  0.0000E+00  9.0
</event>
<event>
 4    1   7.6478753E-02   9.9940000E+02  -1.0000000E+00   9.4100000E-02
        2   -1    0    0  500    0  0.00000000000E+00  0.00000000000E+00  2.16749691740E+03  2.16749691740E+03  0.00000000000E+00  0.0000E+00  9.0
       -2   -1    0    0    0  500  0.00000000000E+00  0.00000000000E+00 -1.15212479990E+02  1.15212479990E+02  0.00000000000E+00  0.0000E+00  9.0
       13    1    1    2    0    0 -1.42656122430E+02  1.90353676140E+02  2.02989048110E+03  2.04378097352E+03  1.05700000000E-01  0.0000E+00  9.0
      -13    1    1    2    0    0  1.42656122430E+02 -1.90353676140E+02  2.23939563120E+01  2.38928423882E+02  1.05700000000E-01  0.0000E+00  9.0
</event>
<event>
 4    1   7.6478753E-02   1.0010000E+03  -1.0000000E+00   9.4080000E-02
       -1   -1    0    0    0  500  0.00000000000E+00  0.00000000000E+00  3.79416484630E+02  3.79416484630E+02  0.00000000000E+00  0.0000E+00  9.0
        1   -1    0    0  500    0  0.00000000000E+00  0.00000000000E+00 -6.60660637140E+02  6.60660637140E+02  0.00000000000E+00  0.0000E+00  9.0
       13    1    1    2    0    0  2.95328160260E+02  4.03477898840E+02 -1.14091829670E+02  5.12864596034E+02  1.05700000000E-01  0.0000E+00  9.0
      -13    1    1    2    0    0 -2.95328160260E+02 -4.03477898840E+02 -1.67152322840E+02  5.27212525741E+02  1.05700000000E-01  0.0000E+00  9.0
</event>
<event>
 4    1   7.6478753E-02   1.0420000E+03  -1.0000000E+00   9.3650000E-02
        1   -1    0    0  500    0  0.00000000000E+00  0.00000000000E+00  5.62751573140E+02  5.62751573140E+02  0.00000000000E+00  0.0000E+00  9.0
       -1   -1    0    0    0  500  0.00000000000E+00  0.00000000000E+00 -4.82754913950E+02  4.82754913950E+02  0.00000000000E+00  0.0000E+00  9.0
       13    1    1    2    0    0  3.51126440360E+02 -3.79030829990E+02 -2.88835025970E+01  5.17482767923E+02  1.05700000000E-01  0.0000E+00  9.0
      -13    1    1    2    0    0 -3.51126440360E+02  3.79030829990E+02  1.08880161790E+02  5.28023719171E+02  1.05700000000E-01  0.0000E+00  9.0
</event>
<event>
 4    1   7.6478753E-02   9.7810000E+02  -1.0000000E+00   9.4340000E-02
       -1   -1    0    0    0  500  0.00000000000E+00  0.00000000000E+00  9.42190695240E+01  9.42190695240E+01  0.00000000000E+00  0.0000E+00  9.0
        1   -1    0    0  500    0  0.00000000000E+00  0.00000000000E+00 -2.53848660710E+03  2.53848660710E+03  0.00000000000E+00  0.0000E+00  9.0
       13    1    1    2    0    0  2.51443964840E+02  2.78173190780E+02 -3.77075564180E+02  5.31780390572E+02  1.05700000000E-01  0.0000E+00  9.0
      -13    1    1    2    0    0 -2.51443964840E+02 -2.78173190780E+02 -2.06719197340E+03  2.10092528605E+03  1.05700000000E-01  0.0000E+00  9.0
</event>
<event>
 4    1   7.6478753E-02   9.9790000E+02  -1.0000000E+00   9.4120000E-02
       -1   -1    0    0    0  500  0.00000000000E+00  0.00000000000E+00  6.54202291030E+02  6.54202291030E+02  0.00000000000E+00  0.0000E+00  9.0
        1   -1    0    0  500    0  0.00000000000E+00  0.00000000000E+00 -3.80555795410E+02  3.80555795410E+02  0.00000000000E+00  0.0000E+00  9.0
       13    1    1    2    0    0  4.87403974720E+02  1.06760356120E+02  1.36582663640E+02  5.17315419634E+02  1.05700000000E-01  0.0000E+00  9.0
      -13    1    1    2    0    0 -4.87403974720E+02 -1.06760356120E+02  1.37063831980E+02  5.17442666796E+02  1.05700000000E-01  0.0000E+00  9.0
</event>
<event>
 4    1   7.6478753E-02   9.8830000E+02  -1.0000000E+00   9.4220000E-02
       -1   -1    0    0    0  500  0.00000000000E+00  0.00000000000E+00  6.25454070960E+02  6.25454070960E+02  0.00000000000E+00  0.0000E+00  9.0
        1   -1    0    0  500    0  0.00000000000E+00  0.00000000000E+00 -3.90423267520E+02  3.90423267520E+02  0.00000000000E+00  0.0000E+00  9.0
       13    1    1    2    0    0  5.13657145840E+01  4.25189388690E+02 -1.35869595250E+02  4.49316159263E+02  1.05700000000E-01  0.0000E+00  9.0
      -13    1    1    2    0    0 -5.13657145840E+01 -4.25189388690E+02  3.70900398690E+02  5.66561179230E+02  1.05700000000E-01  0.0000E+00  9.0
</event>
<event>
 4    1   7.6478753E-02   1.0010000E+03  -1.0000000E+00   9.4090000E-02
        3   -1    0    0  500    0  0.00000000000E+00  0.00000000000E+00  4.03314102620E+02  4.03314152209E+02  2.00000000000E-01  0.0000E+00  9.0
       -3   -1    0    0    0  500  0.00000000000E+00  0.00000000000E+00 -6.20602588620E+02  6.20602620847E+02  2.00000000000E-01  0.0000E+00  9.0
       13    1    1    2    0    0  1.06617209150E+02 -6.26797105250E+00 -6.08801169710E+02  6.18098205919E+02  1.05700000000E-01  0.0000E+00  9.0
      -13    1    1    2    0    0 -1.06617209150E+02  6.26797105250E+00  3.91512683710E+02  4.05818567129E+02  1.05700000000E-01  0.0000E+00  9.0
</event>
<event>
 4    1   7.6478753E-02   1.0000000E+03  -1.0000000E+00   9.4100000E-02
        1   -1    0    0  500    0  0.00000000000E+00  0.00000000000E+00  3.05600830450E+03  3.05600830450E+03  0.00000000000E+00  0.0000E+00  9.0
       -1   -1    0    0    0  500  0.00000000000E+00  0.00000000000E+00 -8.18341483380E+01  8.18341483380E+01  0.00000000000E+00  0.0000E+00  9.0
       13    1    1    2    0    0 -1.93666226370E+02 -1.64096175880E+02  1.35307090040E+02  2.87649408069E+02  1.05700000000E-01  0.0000E+00  9.0
      -13    1    1    2    0    0  1.93666226370E+02  1.64096175880E+02  2.83886706610E+03  2.85019304475E+03  1.05700000000E-01  0.0000E+00  9.0
</event>
<event>
 4    1   7.6478753E-02   1.0010000E+03  -1.0000000E+00   9.4090000E-02
        1   -1    0    0  500    0  0.00000000000E+00  0.00000000000E+00  1.47216257770E+03  1.47216257770E+03  0.00000000000E+00  0.0000E+00  9.0
       -1   -1    0    0    0  500  0.00000000000E+00  0.00000000000E+00 -1.70118663350E+02  1.70118663350E+02  0.00000000000E+00  0.0000E+00  9.0
       13    1    1    2    0    0  3.07110008400E+02  1.56056570760E+02  5.53935312830E+01  3.48910683438E+02  1.05700000000E-01  0.0000E+00  9.0
      -13    1    1    2    0    0 -3.07110008400E+02 -1.56056570760E+02  1.24665038310E+03  1.29337055765E+03  1.05700000000E-01  0.0000E+00  9.0
</event>
<event>
 4    1   7.6478753E-02   9.9820000E+02  -1.0000000E+00   9.4120000E-02
        2   -1    0    0  500    0  0.00000000000E+00  0.00000000000E+00  2.34798592070E+03  2.34798592070E+03  0.00000000000E+00  0.0000E+00  9.0
       -2   -1    0    0    0  500  0.00000000000E+00  0.00000000000E+00 -1.06101269810E+02  1.06101269810E+02  0.00000000000E+00  0.0000E+00  9.0
       13    1    1    2    0    0 -3.51246708610E+02  1.09086222700E+02  1.95044711740E+03  1.98482191222E+03  1.05700000000E-01  0.0000E+00  9.0
      -13    1    1    2    0    0  3.51246708610E+02 -1.09086222700E+02  2.91437533430E+02  4.69265278235E+02  1.05700000000E-01  0.0000E+00  9.0
</event>
<event>
 4    1   7.6478753E-02   9.9990000E+02  -1.0000000E+00   9.4100000E-02
       -1   -1    0    0    0  500  0.00000000000E+00  0.00000000000E+00  7.19106865090E+01  7.19106865090E+01  0.00000000000E+00  0.0000E+00  9.0
        1   -1    0    0  500    0  0.00000000000E+00  0.00000000000E+00 -3.47577755780E+03  3.47577755780E+03  0.00000000000E+00  0.0000E+00  9.0
       13    1    1    2    0    0 -1.92318954310E+02  1.60315074090E+02 -1.66563683440E+02  3.00717433783E+02  1.05700000000E-01  0.0000E+00  9.0
      -13    1    1    2    0    0  1.92318954310E+02 -1.60315074090E+02 -3.23730318790E+03  3.24697081058E+03  1.05700000000E-01  0.0000E+00  9.0
</event>
<event>
 4    1   7.6478753E-02   1.0000000E+03  -1.0000000E+00   9.4100000E-02
        1   -1    0    0  500    0  0.00000000000E+00  0.00000000000E+00  9.18340957440E+02  9.18340957440E+02  0.00000000000E+00  0.0000E+00  9.0
       -1   -1    0    0    0  500  0.00000000000E+00  0.00000000000E+00 -2.72286829200E+02  2.72286829200E+02  0.00000000000E+00  0.0000E+00  9.0
       13    1    1    2    0    0 -1.58722964660E+02 -1.90182128190E+02 -1.94109288630E+02  3.14707242526E+02  1.05700000000E-01  0.0000E+00  9.0
      -13    1    1    2    0    0  1.58722964660E+02  1.90182128190E+02  8.40163416870E+02  8.75920544121E+02  1.05700000000E-01  0.0000E+00  9.0
</event>
<event>
 4    1   7.6478753E-02   9.9920000E+02  -1.0000000E+00   9.4110000E-02
       -1   -1    0    0    0  500  0.00000000000E+00  0.00000000000E+00  9.63323374970E+01  9.63323374970E+01  0.00000000000E+00  0.0000E+00  9.0
        1   -1    0    0  500    0  0.00000000000E+00  0.00000000000E+00 -2.59128149440E+03  2.59128149440E+03  0.00000000000E+00  0.0000E+00  9.0
       13    1    1    2    0    0  1.63903945750E+02 -2.00888404670E+02 -9.87652326770E+01  2.77444114952E+02  1.05700000000E-01  0.0000E+00  9.0
      -13    1    1    2    0    0 -1.63903945750E+02  2.00888404670E+02 -2.39618392430E+03  2.41016971701E+03  1.05700000000E-01  0.0000E+00  9.0
</event>
<event>
 4    1   7.6478753E-02   9.9020000E+02  -1.0000000E+00   9.4200000E-02
        2   -1    0    0  500    0  0.00000000000E+00  0.00000000000E+00  1.33866166700E+03  1.33866166700E+03  0.00000000000E+00  0.0000E+00  9.0
       -2   -1    0    0    0  500  0.00000000000E+00  0.00000000000E+00 -1.83119501690E+02  1.83119501690E+02  0.00000000000E+00  0.0000E+00  9.0
       13    1    1    2    0    0  1.34113593650E+02 -2.10673370960E+02  1.23477263250E+03  1.25977505547E+03  1.05700000000E-01  0.0000E+00  9.0
      -13    1    1    2    0    0 -1.34113593650E+02  2.10673370960E+02 -7.92304672350E+01  2.62006113181E+02  1.05700000000E-01  0.0000E+00  9.0
</event>
<event>
 4    1   7.6478753E-02   9.9930000E+02  -1.0000000E+00   9.4110000E-02
        2   -1    0    0  500    0  0.00000000000E+00  0.00000000000E+00  6.30153951100E+02  6.30153951100E+02  0.00000000000E+00  0.0000E+00  9.0
       -2   -1    0    0    0  500  0.00000000000E+00  0.00000000000E+00 -3.96173437370E+02  3.96173437370E+02  0.00000000000E+00  0.0000E+00  9.0
       13    1    1    2    0    0 -2.36864381890E+01  4.31708414490E+02  3.74197208350E+02  5.71801332986E+02  1.05700000000E-01  0.0000E+00  9.0
      -13    1    1    2    0    0  2.36864381890E+01 -4.31708414490E+02 -1.40216694610E+02  4.54526055486E+02  1.05700000000E-01  0.0000E+00  9.0
</event>
<event>
 4    1   7.6478753E-02   9.9910000E+02  -1.0000000E+00   9.4110000E-02
        1   -1    0    0  500    0  0.00000000000E+00  0.00000000000E+00  5.82187872500E+02  5.82187872500E+02  0.00000000000E+00  0.0000E+00  9.0
       -1   -1    0    0    0  500  0.00000000000E+00  0.00000000000E+00 -4.28647164490E+02  4.28647164490E+02  0.00000000000E+00  0.0000E+00  9.0
       13    1    1    2    0    0  2.91290847110E+02 -2.98327053350E+02 -2.01602910350E+02  4.63134033520E+02  1.05700000000E-01  0.0000E+00  9.0
      -13    1    1    2    0    0 -2.91290847110E+02  2.98327053350E+02  3.55143618360E+02  5.47701003473E+02  1.05700000000E-01  0.0000E+00  9.0
</event>
<event>
 4    1   7.6478753E-02   1.0250000E+03  -1.0000000E+00   9.3830000E-02
        1   -1    0    0  500    0  0.00000000000E+00  0.00000000000E+00  7.84458386420E+02  7.84458386420E+02  0.00000000000E+00  0.0000E+00  9.0
       -1   -1    0    0    0  500  0.00000000000E+00  0.00000000000E+00 -3.34918708440E+02  3.34918708440E+02  0.00000000000E+00  0.0000E+00  9.0
       13    1    1    2    0    0  1.38483810570E+02  3.90222221910E+02 -1.05125605360E+02  4.27203174540E+02  1.05700000000E-01  0.0000E+00  9.0
      -13    1    1    2    0    0 -1.38483810570E+02 -3.90222221910E+02  5.54665283350E+02  6.92173920333E+02  1.05700000000E-01  0.0000E+00  9.0
</event>
<event>
 4    1   7.6478753E-02   1.0010000E+03  -1.0000000E+00   9.4090000E-02
        1   -1    0    0  500    0  0.00000000000E+00  0.00000000000E+00  1.68244859100E+03  1.68244859100E+03  0.00000000000E+00  0.0000E+00  9.0
       -1   -1    0    0    0  500  0.00000000000E+00  0.00000000000E+00 -1.48892938400E+02  1.48892938400E+02  0.00000000000E+00  0.0000E+00  9.0
       13    1    1    2    0    0  4.13238117290E+02  1.14966081920E+01  1.28296410000E+03  1.34792240379E+03  1.05700000000E-01  0.0000E+00  9.0
      -13    1    1    2    0    0 -4.13238117290E+02 -1.14966081920E+01  2.50591552560E+02  4.83419125571E+02  1.05700000000E-01  0.0000E+00  9.0
</event>
<event>
 4    1   7.6478753E-02   1.0260000E+03  -1.0000000E+00   9.3820000E-02
       -1   -1    0    0    0  500  0.00000000000E+00  0.00000000000E+00  1.96871900360E+02  1.96871900360E+02  0.00000000000E+00  0.0000E+00  9.0
        1   -1    0    0  500    0  0.00000000000E+00  0.00000000000E+00 -1.33634243520E+03  1.33634243520E+03  0.00000000000E+00  0.0000E+00  9.0
       13    1    1    2    0    0  2.07049379920E+02  1.12356651520E+02  1.11238473260E+02  2.60513861381E+02  1.05700000000E-01  0.0000E+00  9.0
      -13    1    1    2    0    0 -2.07049379920E+02 -1.12356651520E+02 -1.25070900810E+03  1.27270047418E+03  1.05700000000E-01  0.0000E+00  9.0
</event>
<event>
 4    1   7.6478753E-02   1.0190000E+03  -1.0000000E+00   9.3890000E-02
       -2   -1    0    0    0  500  0.00000000000E+00  0.00000000000E+00  1.23691129900E+02  1.23691129900E+02  0.00000000000E+00  0.0000E+00  9.0
        2   -1    0    0  500    0  0.00000000000E+00  0.00000000000E+00 -2.10059606370E+03  2.10059606370E+03  0.00000000000E+00  0.0000E+00  9.0
       13    1    1    2    0    0 -2.15776467900E+02 -2.19412376560E+02 -1.87504724650E+03  1.90013248561E+03  1.05700000000E-01  0.0000E+00  9.0
      -13    1    1    2    0    0  2.15776467900E+02  2.19412376560E+02 -1.01857687330E+02  3.24154708014E+02  1.05700000000E-01  0.0000E+00  9.0
</event>
<event>
 4    1   7.6478753E-02   1.0050000E+03  -1.0000000E+00   9.4050000E-02
       -3   -1    0    0    0  500  0.00000000000E+00  0.00000000000E+00  7.71040364130E+02  7.71040390069E+02  2.00000000000E-01  0.0000E+00  9.0
        3   -1    0    0  500    0  0.00000000000E+00  0.00000000000E+00 -3.27388386520E+02  3.27388447610E+02  2.00000000000E-01  0.0000E+00  9.0
       13    1    1    2    0    0 -3.79296583130E+02  1.48798787870E+02  5.43181434090E+02  6.79008879734E+02  1.05700000000E-01  0.0000E+00  9.0
      -13    1    1    2    0    0  3.79296583130E+02 -1.48798787870E+02 -9.95294564820E+01  4.19419957949E+02  1.05700000000E-01  0.0000E+00  9.0
</event>
<event>
 4    1   7.6478753E-02   1.0050000E+03  -1.0000000E+00   9.4040000E-02
       -3   -1    0    0    0  500  0.00000000000E+00  0.00000000000E+00  1.73975073380E+02  1.73975188339E+02  2.00000000000E-01  0.0000E+00  9.0
        3   -1    0    0  500    0  0.00000000000E+00  0.00000000000E+00 -1.45115528390E+03  1.45115529768E+03  2.00000000000E-01  0.0000E+00  9.0
       13    1    1    2    0    0  2.02942154920E+02  1.78964938890E+02 -1.32327138620E+03  1.35065211668E+03  1.05700000000E-01  0.0000E+00  9.0
      -13    1    1    2    0    0 -2.02942154920E+02 -1.78964938890E+02  4.60911756560E+01  2.74478369351E+02  1.05700000000E-01  0.0000E+00  9.0
</event>
<event>
 4    1   7.6478753E-02   9.9870000E+02  -1.0000000E+00   9.4110000E-02
       -1   -1    0    0    0  500  0.00000000000E+00  0.00000000000E+00  6.56105563720E+02  6.56105563720E+02  0.00000000000E+00  0.0000E+00  9.0
        1   -1    0    0  500    0  0.00000000000E+00  0.00000000000E+00 -3.80054677520E+02  3.80054677520E+02  0.00000000000E+00  0.0000E+00  9.0
       13    1    1    2    0    0  1.18670974250E+02 -2.48663465000E+02  5.70102525340E+02  6.33192877034E+02  1.05700000000E-01  0.0000E+00  9.0
      -13    1    1    2    0    0 -1.18670974250E+02  2.48663465000E+02 -2.94051639150E+02  4.02967364205E+02  1.05700000000E-01  0.0000E+00  9.0
</event>
<event>
 4    1   7.6478753E-02   1.0000000E+03  -1.0000000E+00   9.4090000E-02
       -1   -1    0    0    0  500  0.00000000000E+00  0.00000000000E+00  7.04788172810E+01  7.04788172810E+01  0.00000000000E+00  0.0000E+00  9.0
        1   -1    0    0  500    0  0.00000000000E+00  0.00000000000E+00 -3.55003611550E+03  3.55003611550E+03  0.00000000000E+00  0.0000E+00  9.0
       13    1    1    2    0    0  2.54243844420E+01 -4.69177611310E+02 -1.11894208850E+03  1.21359195732E+03  1.05700000000E-01  0.0000E+00  9.0
      -13    1    1    2    0    0 -2.54243844420E+01  4.69177611310E+02 -2.36061520980E+03  2.40692297554E+03  1.05700000000E-01  0.0000E+00  9.0
</event>
<event>
 4    1   7.6478753E-02   1.0010000E+03  -1.0000000E+00   9.4090000E-02
       -2   -1    0    0    0  500  0.00000000000E+00  0.00000000000E+00  1.35489963710E+02  1.35489963710E+02  0.00000000000E+00  0.0000E+00  9.0
        2   -1    0    0  500    0  0.00000000000E+00  0.00000000000E+00 -1.84924534660E+03  1.84924534660E+03  0.00000000000E+00  0.0000E+00  9.0
       13    1    1    2    0    0 -1.80739939140E+02 -4.07284716600E+02 -1.30899402650E+03  1.38275563227E+03  1.05700000000E-01  0.0000E+00  9.0
      -13    1    1    2    0    0  1.80739939140E+02  4.07284716600E+02 -4.04761356370E+02  6.01979678028E+02  1.05700000000E-01  0.0000E+00  9.0
</event>
<event>
 4    1   7.6478753E-02   9.9530000E+02  -1.0000000E+00   9.4150000E-02
        1   -1    0    0  500    0  0.00000000000E+00  0.00000000000E+00  9.72394174490E+02  9.72394174490E+02  0.00000000000E+00  0.0000E+00  9.0
       -1   -1    0    0    0  500  0.00000000000E+00  0.00000000000E+00 -2.54690848260E+02  2.54690848260E+02  0.00000000000E+00  0.0000E+00  9.0
       13    1    1    2    0    0 -6.27440406560E+01 -3.37269475500E+02 -8.56182194940E+01  3.53578851777E+02  1.05700000000E-01  0.0000E+00  9.0
      -13    1    1    2    0    0  6.27440406560E+01  3.37269475500E+02  8.03321545720E+02  8.73506170976E+02  1.05700000000E-01  0.0000E+00  9.0
</event>
<event>
 4    1   7.6478753E-02   1.0010000E+03  -1.0000000E+00   9.4090000E-02
        1   -1    0    0  500    0  0.00000000000E+00  0.00000000000E+00  5.30637936040E+02  5.30637936040E+02  0.00000000000E+00  0.0000E+00  9.0
       -1   -1    0    0    0  500  0.00000000000E+00  0.00000000000E+00 -4.72117963900E+02  4.72117963900E+02  0.00000000000E+00  0.0000E+00  9.0
       13    1    1    2    0    0  4.66071843630E+02  1.33794067530E+02 -9.50481101940E+01  4.94123436355E+02  1.05700000000E-01  0.0000E+00  9.0
      -13    1    1    2    0    0 -4.66071843630E+02 -1.33794067530E+02  1.53568082340E+02  5.08632463589E+02  1.05700000000E-01  0.0000E+00  9.0
</event>
<event>
 4    1   7.6478753E-02   1.0010000E+03  -1.0000000E+00   9.4090000E-02
        1   -1    0    0  500    0  0.00000000000E+00  0.00000000000E+00  2.08084823550E+03  2.08084823550E+03  0.00000000000E+00  0.0000E+00  9.0
       -1   -1    0    0    0  500  0.00000000000E+00  0.00000000000E+00 -1.20361777090E+02  1.20361777090E+02  0.00000000000E+00  0.0000E+00  9.0
       13    1    1    2    0    0 -2.16500490950E+02 -3.60964162860E+01  1.96934860600E+03  1.98154216634E+03  1.05700000000E-01  0.0000E+00  9.0
      -13    1    1    2    0    0  2.16500490950E+02  3.60964162860E+01 -8.86214757910E+00  2.19667846265E+02  1.05700000000E-01  0.0000E+00  9.0
</event>
<event>
 4    1   7.6478753E-02   1.0000000E+03  -1.0000000E+00   9.4090000E-02
       -2   -1    0    0    0  500  0.00000000000E+00  0.00000000000E+00  3.65702999890E+02  3.65702999890E+02  0.00000000000E+00  0.0000E+00  9.0
        2   -1    0    0  500    0  0.00000000000E+00  0.00000000000E+00 -6.84072986500E+02  6.84072986500E+02  0.00000000000E+00  0.0000E+00  9.0
       13    1    1    2    0    0  4.81081327920E+02  1.28080303270E+02 -2.09772517580E+02  5.40229884830E+02  1.05700000000E-01  0.0000E+00  9.0
      -13    1    1    2    0    0 -4.81081327920E+02 -1.28080303270E+02 -1.08597469040E+02  5.09546101558E+02  1.05700000000E-01  0.0000E+00  9.0
</event>
<event>
 4    1   7.6478753E-02   1.0050000E+03  -1.0000000E+00   9.4040000E-02
        2   -1    0    0  500    0  0.00000000000E+00  0.00000000000E+00  2.02542987580E+03  2.02542987580E+03  0.00000000000E+00  0.0000E+00  9.0
       -2   -1    0    0    0  500  0.00000000000E+00  0.00000000000E+00 -1.24647922380E+02  1.24647922380E+02  0.00000000000E+00  0.0000E+00  9.0
       13    1    1    2    0    0  3.54791957420E+02 -1.38768455910E+02  1.65134066590E+03  1.69471532224E+03  1.05700000000E-01  0.0000E+00  9.0
      -13    1    1    2    0    0 -3.54791957420E+02  1.38768455910E+02  2.49441287530E+02  4.55362475949E+02  1.05700000000E-01  0.0000E+00  9.0
</event>
<event>
 4    1   7.6478753E-02   9.9580000E+02  -1.0000000E+00   9.4140000E-02
       -1   -1    0    0    0  500  0.00000000000E+00  0.00000000000E+00  2.95043937860E+02  2.95043937860E+02  0.00000000000E+00  0.0000E+00  9.0
        1   -1    0    0  500    0  0.00000000000E+00  0.00000000000E+00 -8.40257640870E+02  8.40257640870E+02  0.00000000000E+00  0.0000E+00  9.0
       13    1    1    2    0    0  8.15506110780E+01 -1.19822845200E+02  2.70460377100E+02  3.06849870706E+02  1.05700000000E-01  0.0000E+00  9.0
      -13    1    1    2    0    0 -8.15506110780E+01  1.19822845200E+02 -8.15674080110E+02  8.28451708028E+02  1.05700000000E-01  0.0000E+00  9.0
</event>
<event>
 4    1   7.6478753E-02   1.0050000E+03  -1.0000000E+00   9.4040000E-02
       -1   -1    0    0    0  500  0.00000000000E+00  0.00000000000E+00  7.81453018560E+02  7.81453018560E+02  0.00000000000E+00  0.0000E+00  9.0
        1   -1    0    0  500    0  0.00000000000E+00  0.00000000000E+00 -3.23388216090E+02  3.23388216090E+02  0.00000000000E+00  0.0000E+00  9.0
       13    1    1    2    0    0  4.38795753960E+02  6.51383733890E+01  4.88911203160E+02  6.60165810330E+02  1.05700000000E-01  0.0000E+00  9.0
      -13    1    1    2    0    0 -4.38795753960E+02 -6.51383733890E+01 -3.08464006840E+01  4.44675424314E+02  1.05700000000E-01  0.0000E+00  9.0
</event>
<event>
 4    1   7.6478753E-02   1.0060000E+03  -1.0000000E+00   9.4030000E-02
       -1   -1    0    0    0  500  0.00000000000E+00  0.00000000000E+00  2.18678440090E+02  2.18678440090E+02  0.00000000000E+00  0.0000E+00  9.0
        1   -1    0    0  500    0  0.00000000000E+00  0.00000000000E+00 -1.15696670430E+03  1.15696670430E+03  0.00000000000E+00  0.0000E+00  9.0
       13    1    1    2    0    0  3.43736206510E+02 -2.72591196900E+01 -9.69912805350E+02  1.02938258215E+03  1.05700000000E-01  0.0000E+00  9.0
      -13    1    1    2    0    0 -3.43736206510E+02  2.72591196900E+01  3.16245410870E+01  3.46262562290E+02  1.05700000000E-01  0.0000E+00  9.0
</event>
<event>
 4    1   7.6478753E-02   1.0010000E+03  -1.0000000E+00   9.4090000E-02
        1   -1    0    0  500    0  0.00000000000E+00  0.00000000000E+00  2.34130695900E+02  2.34130695900E+02  0.00000000000E+00  0.0000E+00  9.0
       -1   -1    0    0    0  500  0.00000000000E+00  0.00000000000E+00 -1.06909706410E+03  1.06909706410E+03  0.00000000000E+00  0.0000E+00  9.0
       13    1    1    2    0    0  1.19748799580E+02 -4.85428973530E+02 -3.93918112930E+02  6.36515949690E+02  1.05700000000E-01  0.0000E+00  9.0
      -13    1    1    2    0    0 -1.19748799580E+02  4.85428973530E+02 -4.41048255270E+02  6.66711810299E+02  1.05700000000E-01  0.0000E+00  9.0
</event>
<event>
 4    1   7.6478753E-02   1.0080000E+03  -1.0000000E+00   9.4010000E-02
        3   -1    0    0  500    0  0.00000000000E+00  0.00000000000E+00  7.56674827960E+02  7.56674854391E+02  2.00000000000E-01  0.0000E+00  9.0
       -3   -1    0    0    0  500  0.00000000000E+00  0.00000000000E+00 -3.35611880120E+02  3.35611939713E+02  2.00000000000E-01  0.0000E+00  9.0
       13    1    1    2    0    0 -5.02736163420E+01 -4.21939072310E+02 -8.30638020060E+01  4.32966076752E+02  1.05700000000E-01  0.0000E+00  9.0
      -13    1    1    2    0    0  5.02736163420E+01  4.21939072310E+02  5.04126749850E+02  6.59320717351E+02  1.05700000000E-01  0.0000E+00  9.0
</event>
<event>
 4    1   7.6478753E-02   9.8920000E+02  -1.0000000E+00   9.4220000E-02
        2   -1    0    0  500    0  0.00000000000E+00  0.00000000000E+00  2.35830802920E+03  2.35830802920E+03  0.00000000000E+00  0.0000E+00  9.0
       -2   -1    0    0    0  500  0.00000000000E+00  0.00000000000E+00 -1.03724736450E+02  1.03724736450E+02  0.00000000000E+00  0.0000E+00  9.0
       13    1    1    2    0    0 -8.11496592710E+01 -1.31500962900E+02  2.29668349290E+03  2.30187594109E+03  1.05700000000E-01  0.0000E+00  9.0
      -13    1    1    2    0    0  8.11496592710E+01  1.31500962900E+02 -4.21002001020E+01  1.60156824596E+02  1.05700000000E-01  0.0000E+00  9.0
</event>
<event>
 4    1   7.6478753E-02   1.0050000E+03  -1.0000000E+00   9.4040000E-02
        3   -1    0    0  500    0  0.00000000000E+00  0.00000000000E+00  2.01750102330E+02  2.01750201463E+02  2.00000000000E-01  0.0000E+00  9.0
       -3   -1    0    0    0  500  0.00000000000E+00  0.00000000000E+00 -1.25212889410E+03  1.25212891007E+03  2.00000000000E-01  0.0000E+00  9.0
       13    1    1    2    0    0 -8.59267904330E+01 -4.00798870710E+02 -1.04524031820E+02  4.23022969207E+02  1.05700000000E-01  0.0000E+00  9.0
      -13    1    1    2    0    0  8.59267904330E+01  4.00798870710E+02 -9.45854759930E+02  1.03085614231E+03  1.05700000000E-01  0.0000E+00  9.0
</event>
<event>
 4    1   7.6478753E-02   9.9670000E+02  -1.0000000E+00   9.4130000E-02
       -1   -1    0    0    0  500  0.00000000000E+00  0.00000000000E+00  3.50641456360E+02  3.50641456360E+02  0.00000000000E+00  0.0000E+00  9.0
        1   -1    0    0  500    0  0.00000000000E+00  0.00000000000E+00 -7.08304572170E+02  7.08304572170E+02  0.00000000000E+00  0.0000E+00  9.0
       13    1    1    2    0    0  2.55023590250E+01  1.51232439990E+02  3.24945404020E+02  3.59320397400E+02  1.05700000000E-01  0.0000E+00  9.0
      -13    1    1    2    0    0 -2.55023590250E+01 -1.51232439990E+02 -6.82608519830E+02  6.99625631133E+02  1.05700000000E-01  0.0000E+00  9.0
</event>
<event>
 4    1   7.6478753E-02   1.0030000E+03  -1.0000000E+00   9.4070000E-02
       -1   -1    0    0    0  500  0.00000000000E+00  0.00000000000E+00  5.53521619420E+02  5.53521619420E+02  0.00000000000E+00  0.0000E+00  9.0
        1   -1    0    0  500    0  0.00000000000E+00  0.00000000000E+00 -4.54379383740E+02  4.54379383740E+02  0.00000000000E+00  0.0000E+00  9.0
       13    1    1    2    0    0  3.61826008460E+02 -8.20009678550E+01 -2.89514539860E+02  4.70596322861E+02  1.05700000000E-01  0.0000E+00  9.0
      -13    1    1    2    0    0 -3.61826008460E+02  8.20009678550E+01  3.88656775530E+02  5.37304680293E+02  1.05700000000E-01  0.0000E+00  9.0
</event>
<event>
 4    1   7.6478753E-02   1.0000000E+03  -1.0000000E+00   9.4090000E-02
        2   -1    0    0  500    0  0.00000000000E+00  0.00000000000E+00  8.14814270050E+02  8.14814270050E+02  0.00000000000E+00  0.0000E+00  9.0
       -2   -1    0    0    0  500  0.00000000000E+00  0.00000000000E+00 -3.07022853580E+02  3.07022853580E+02  0.00000000000E+00  0.0000E+00  9.0
       13    1    1    2    0    0 -2.17992130850E+02  2.10193730860E+02  7.00323579120E+02  7.62990891328E+02  1.05700000000E-01  0.0000E+00  9.0
      -13    1    1    2    0    0  2.17992130850E+02 -2.10193730860E+02 -1.92532162650E+02  3.58846232295E+02  1.05700000000E-01  0.0000E+00  9.0
</event>
<event>
 4    1   7.6478753E-02   1.0010000E+03  -1.0000000E+00   9.4090000E-02
       -2   -1    0    0    0  500  0.00000000000E+00  0.00000000000E+00  1.00692830280E+02  1.00692830280E+02  0.00000000000E+00  0.0000E+00  9.0
        2   -1    0    0  500    0  0.00000000000E+00  0.00000000000E+00 -2.48539529700E+03  2.48539529700E+03  0.00000000000E+00  0.0000E+00  9.0
       13    1    1    2    0    0 -3.03826140150E+02  3.15431070550E+02 -1.81727190120E+03  1.86930047284E+03  1.05700000000E-01  0.0000E+00  9.0
      -13    1    1    2    0    0  3.03826140150E+02 -3.15431070550E+02 -5.67430565540E+02  7.16787654461E+02  1.05700000000E-01  0.0000E+00  9.0
</event>
<event>
 4    1   7.6478753E-02   9.9910000E+02  -1.0000000E+00   9.4110000E-02
       -2   -1    0    0    0  500  0.00000000000E+00  0.00000000000E+00  3.22398976580E+02  3.22398976580E+02  0.00000000000E+00  0.0000E+00  9.0
        2   -1    0    0  500    0  0.00000000000E+00  0.00000000000E+00 -7.74034707840E+02  7.74034707840E+02  0.00000000000E+00  0.0000E+00  9.0
       13    1    1    2    0    0  2.50280942600E+02  1.98019904240E+01 -6.99767923710E+02  7.43443223978E+02  1.05700000000E-01  0.0000E+00  9.0
      -13    1    1    2    0    0 -2.50280942600E+02 -1.98019904240E+01  2.48132192450E+02  3.52990460432E+02  1.05700000000E-01  0.0000E+00  9.0
</event>
<event>
 4    1   7.6478753E-02   1.0790000E+03  -1.0000000E+00   9.3280000E-02
       -1   -1    0    0    0  500  0.00000000000E+00  0.00000000000E+00  2.85626151010E+02  2.85626151010E+02  0.00000000000E+00  0.0000E+00  9.0
        1   -1    0    0  500    0  0.00000000000E+00  0.00000000000E+00 -1.01914067280E+03  1.01914067280E+03  0.00000000000E+00  0.0000E+00  9.0
       13    1    1    2    0    0  8.83788914060E+01  4.25663672280E+02 -7.53110423910E+02  8.69583642969E+02  1.05700000000E-01  0.0000E+00  9.0
      -13    1    1    2    0    0 -8.83788914060E+01 -4.25663672280E+02  1.95959021130E+01  4.35183180853E+02  1.05700000000E-01  0.0000E+00  9.0
</event>
<event>
 4    1   7.6478753E-02   1.0070000E+03  -1.0000000E+00   9.4020000E-02
        2   -1    0    0  500    0  0.00000000000E+00  0.00000000000E+00  3.88414299530E+03  3.88414299530E+03  0.00000000000E+00  0.0000E+00  9.0
       -2   -1    0    0    0  500  0.00000000000E+00  0.00000000000E+00 -6.53301871280E+01  6.53301871280E+01  0.00000000000E+00  0.0000E+00  9.0
       13    1    1    2    0    0  3.44399899450E+02 -1.59185349910E+02  6.10413441030E+02  7.18718196882E+02  1.05700000000E-01  0.0000E+00  9.0
      -13    1    1    2    0    0 -3.44399899450E+02  1.59185349910E+02  3.20839936710E+03  3.23075498550E+03  1.05700000000E-01  0.0000E+00  9.0
</event>
<event>
 4    1   7.6478753E-02   1.0000000E+03  -1.0000000E+00   9.4100000E-02
        1   -1    0    0  500    0  0.00000000000E+00  0.00000000000E+00  1.01662791650E+03  1.01662791650E+03  0.00000000000E+00  0.0000E+00  9.0
       -1   -1    0    0    0  500  0.00000000000E+00  0.00000000000E+00 -2.45968424230E+02  2.45968424230E+02  0.00000000000E+00  0.0000E+00  9.0
       13    1    1    2    0    0 -3.23752497350E+02 -3.05011777900E+02  9.68650127750E+01  4.55225994502E+02  1.05700000000E-01  0.0000E+00  9.0
      -13    1    1    2    0    0  3.23752497350E+02  3.05011777900E+02  6.73794479500E+02  8.07370346232E+02  1.05700000000E-01  0.0000E+00  9.0
</event>
<event>
 4    1   7.6478753E-02   9.8860000E+02  -1.0000000E+00   9.4220000E-02
        3   -1    0    0  500    0  0.00000000000E+00  0.00000000000E+00  1.16076159360E+02  1.16076331661E+02  2.00000000000E-01  0.0000E+00  9.0
       -3   -1    0    0    0  500  0.00000000000E+00  0.00000000000E+00 -2.10499551800E+03  2.10499552750E+03  2.00000000000E-01  0.0000E+00  9.0
       13    1    1    2    0    0 -2.35946340070E+01 -2.43752929000E+02 -2.97917171530E+01  2.46697699084E+02  1.05700000000E-01  0.0000E+00  9.0
      -13    1    1    2    0    0  2.35946340070E+01  2.43752929000E+02 -1.95912764140E+03  1.97437415999E+03  1.05700000000E-01  0.0000E+00  9.0
</event>
<event>
 4    1   7.6478753E-02   1.0030000E+03  -1.0000000E+00   9.4070000E-02
        2   -1    0    0  500    0  0.00000000000E+00  0.00000000000E+00  7.08623253110E+02  7.08623253110E+02  0.00000000000E+00  0.0000E+00  9.0
       -2   -1    0    0    0  500  0.00000000000E+00  0.00000000000E+00 -3.54901451130E+02  3.54901451130E+02  0.00000000000E+00  0.0000E+00  9.0
       13    1    1    2    0    0  8.42134510830E+01 -3.94712896050E+02 -1.38767361690E+02  4.26786325337E+02  1.05700000000E-01  0.0000E+00  9.0
      -13    1    1    2    0    0 -8.42134510830E+01  3.94712896050E+02  4.92489163680E+02  6.36738378902E+02  1.05700000000E-01  0.0000E+00  9.0
</event>
<event>
 4    1   7.6478753E-02   1.0010000E+03  -1.0000000E+00   9.4090000E-02
       -1   -1    0    0    0  500  0.00000000000E+00  0.00000000000E+00  2.86179251190E+02  2.86179251190E+02  0.00000000000E+00  0.0000E+00  9.0
        1   -1    0    0  500    0  0.00000000000E+00  0.00000000000E+00 -8.74533708820E+02  8.74533708820E+02  0.00000000000E+00  0.0000E+00  9.0
       13    1    1    2    0    0 -3.76711995310E+00  5.16062471190E+01 -8.71421055460E+02  8.72955934172E+02  1.05700000000E-01  0.0000E+00  9.0
      -13    1    1    2    0    0  3.76711995310E+00 -5.16062471190E+01  2.83066597830E+02  2.87757025829E+02  1.05700000000E-01  0.0000E+00  9.0
</event>
<event>
 4    1   7.6478753E-02   9.7990000E+02  -1.0000000E+00   9.4320000E-02
        1   -1    0    0  500    0  0.00000000000E+00  0.00000000000E+00  8.33338305660E+02  8.33338305660E+02  0.00000000000E+00  0.0000E+00  9.0
       -1   -1    0    0    0  500  0.00000000000E+00  0.00000000000E+00 -2.88081610110E+02  2.88081610110E+02  0.00000000000E+00  0.0000E+00  9.0
       13    1    1    2    0    0  1.12729616260E+02 -4.38825055970E+02  5.91655400520E+01  4.56920089766E+02  1.05700000000E-01  0.0000E+00  9.0
      -13    1    1    2    0    0 -1.12729616260E+02  4.38825055970E+02  4.86091155510E+02  6.64499826010E+02  1.05700000000E-01  0.0000E+00  9.0
</event>
<event>
 4    1   7.6478753E-02   9.9000000E+02  -1.0000000E+00   9.4210000E-02
        1   -1    0    0  500    0  0.00000000000E+00  0.00000000000E+00  5.99935261320E+02  5.99935261320E+02  0.00000000000E+00  0.0000E+00  9.0
       -1   -1    0    0    0  500  0.00000000000E+00  0.00000000000E+00 -4.08426152530E+02  4.08426152530E+02  0.00000000000E+00  0.0000E+00  9.0
       13    1    1    2    0    0 -1.29943203220E+02  1.79422622300E+02 -3.55115697610E+02  4.18550932764E+02  1.05700000000E-01  0.0000E+00  9.0
      -13    1    1    2    0    0  1.29943203220E+02 -1.79422622300E+02  5.46624806400E+02  5.89810481087E+02  1.05700000000E-01  0.0000E+00  9.0
</event>
<event>
 4    1   7.6478753E-02   9.9850000E+02  -1.0000000E+00   9.4110000E-02
       -2   -1    0    0    0  500  0.00000000000E+00  0.00000000000E+00  4.56480645240E+02  4.56480645240E+02  0.00000000000E+00  0.0000E+00  9.0
        2   -1    0    0  500    0  0.00000000000E+00  0.00000000000E+00 -5.46055049950E+02  5.46055049950E+02  0.00000000000E+00  0.0000E+00  9.0
       13    1    1    2    0    0 -1.79447147430E+02  3.53483536990E+02  2.59930550620E+02  4.74041972785E+02  1.05700000000E-01  0.0000E+00  9.0
      -13    1    1    2    0    0  1.79447147430E+02 -3.53483536990E+02 -3.49504955340E+02  5.28493722407E+02  1.05700000000E-01  0.0000E+00  9.0
</event>
<event>
 4    1   7.6478753E-02   9.9800000E+02  -1.0000000E+00   9.4120000E-02
       -1   -1    0    0    0  500  0.00000000000E+00  0.00000000000E+00  3.35697653330E+02  3.35697653330E+02  0.00000000000E+00  0.0000E+00  9.0
        1   -1    0    0  500    0  0.00000000000E+00  0.00000000000E+00 -7.41759861100E+02  7.41759861100E+02  0.00000000000E+00  0.0000E+00  9.0
       13    1    1    2    0    0  4.32523965620E+02 -2.35999078760E+02 -1.17786926930E+02  5.06602721409E+02  1.05700000000E-01  0.0000E+00  9.0
      -13    1    1    2    0    0 -4.32523965620E+02  2.35999078760E+02 -2.88275280840E+02  5.70854793032E+02  1.05700000000E-01  0.0000E+00  9.0
</event>
<event>
 4    1   7.6478753E-02   1.0050000E+03  -1.0000000E+00   9.4040000E-02
        2   -1    0    0  500    0  0.00000000000E+00  0.00000000000E+00  3.88257485610E+02  3.88257485610E+02  0.00000000000E+00  0.0000E+00  9.0
       -2   -1    0    0    0  500  0.00000000000E+00  0.00000000000E+00 -6.50645843180E+02  6.50645843180E+02  0.00000000000E+00  0.0000E+00  9.0
       13    1    1    2    0    0  4.22620900560E+02  2.34658115200E+02  1.10593599310E+01  4.83523709071E+02  1.05700000000E-01  0.0000E+00  9.0
      -13    1    1    2    0    0 -4.22620900560E+02 -2.34658115200E+02 -2.73447717500E+02  5.55379619718E+02  1.05700000000E-01  0.0000E+00  9.0
</event>
<event>
 4    1   7.6478753E-02   1.0040000E+03  -1.0000000E+00   9.4050000E-02
        1   -1    0    0  500    0  0.00000000000E+00  0.00000000000E+00  1.05476647710E+03  1.05476647710E+03  0.00000000000E+00  0.0000E+00  9.0
       -1   -1    0    0    0  500  0.00000000000E+00  0.00000000000E+00 -2.38898298800E+02  2.38898298800E+02  0.00000000000E+00  0.0000E+00  9.0
       13    1    1    2    0    0  4.50885307970E+02  1.11177768510E+02  1.62348432310E+02  4.91950283870E+02  1.05700000000E-01  0.0000E+00  9.0
      -13    1    1    2    0    0 -4.50885307970E+02 -1.11177768510E+02  6.53519746020E+02  8.01714492051E+02  1.05700000000E-01  0.0000E+00  9.0
</event>
<event>
 4    1   7.6478753E-02   1.0060000E+03  -1.0000000E+00   9.4040000E-02
       -2   -1    0    0    0  500  0.00000000000E+00  0.00000000000E+00  1.29442406410E+03  1.29442406410E+03  0.00000000000E+00  0.0000E+00  9.0
        2   -1    0    0  500    0  0.00000000000E+00  0.00000000000E+00 -1.95288463650E+02  1.95288463650E+02  0.00000000000E+00  0.0000E+00  9.0
       13    1    1    2    0    0 -1.71184480890E+02 -4.72360191420E+02  5.77590841110E+02  7.65532146838E+02  1.05700000000E-01  0.0000E+00  9.0
      -13    1    1    2    0    0  1.71184480890E+02  4.72360191420E+02  5.21544759360E+02  7.24180380930E+02  1.05700000000E-01  0.0000E+00  9.0
</event>
<event>
 4    1   7.6478753E-02   1.0020000E+03  -1.0000000E+00   9.4070000E-02
        1   -1    0    0  500    0  0.00000000000E+00  0.00000000000E+00  7.26820051200E+02  7.26820051200E+02  0.00000000000E+00  0.0000E+00  9.0
       -1   -1    0    0    0  500  0.00000000000E+00  0.00000000000E+00 -3.45578017890E+02  3.45578017890E+02  0.00000000000E+00  0.0000E+00  9.0
       13    1    1    2    0    0 -1.90693063320E+02 -3.30112804100E+02 -1.57438563980E+02  4.12462386685E+02  1.05700000000E-01  0.0000E+00  9.0
      -13    1    1    2    0    0  1.90693063320E+02  3.30112804100E+02  5.38680597300E+02  6.59935682403E+02  1.05700000000E-01  0.0000E+00  9.0
</event>
<event>
 4    1   7.6478753E-02   9.9590000E+02  -1.0000000E+00   9.4140000E-02
       -2   -1    0    0    0  500  0.00000000000E+00  0.00000000000E+00  4.25761735910E+02  4.25761735910E+02  0.00000000000E+00  0.0000E+00  9.0
        2   -1    0    0  500    0  0.00000000000E+00  0.00000000000E+00 -5.82369136150E+02  5.82369136150E+02  0.00000000000E+00  0.0000E+00  9.0
       13    1    1    2    0    0 -3.13994991120E+02  1.60797355560E+02 -4.34050614620E+02  5.59328696947E+02  1.05700000000E-01  0.0000E+00  9.0
      -13    1    1    2    0    0  3.13994991120E+02 -1.60797355560E+02  2.77443214390E+02  4.48802175114E+02  1.05700000000E-01  0.0000E+00  9.0
</event>
<event>
 4    1   7.6478753E-02   9.9800000E+02  -1.0000000E+00   9.4120000E-02
       -1   -1    0    0    0  500  0.00000000000E+00  0.00000000000E+00  5.48748496510E+02  5.48748496510E+02  0.00000000000E+00  0.0000E+00  9.0
        1   -1    0    0  500    0  0.00000000000E+00  0.00000000000E+00 -4.53750764300E+02  4.53750764300E+02  0.00000000000E+00  0.0000E+00  9.0
       13    1    1    2    0    0  2.08719356510E+02 -4.34155097660E+02  1.78243344950E+02  5.13639094888E+02  1.05700000000E-01  0.0000E+00  9.0
      -13    1    1    2    0    0 -2.08719356510E+02  4.34155097660E+02 -8.32456127420E+01  4.88860165916E+02  1.05700000000E-01  0.0000E+00  9.0
</event>
<event>
 4    1   7.6478753E-02   1.0050000E+03  -1.0000000E+00   9.4050000E-02
        3   -1    0    0  500    0  0.00000000000E+00  0.00000000000E+00  7.03612973800E+02  7.03613002225E+02  2.00000000000E-01  0.0000E+00  9.0
       -3   -1    0    0    0  500  0.00000000000E+00  0.00000000000E+00 -3.58600401590E+02  3.58600457362E+02  2.00000000000E-01  0.0000E+00  9.0
       13    1    1    2    0    0  1.96080026820E+02 -1.52896813210E+02 -2.88967274700E+02  3.81217666731E+02  1.05700000000E-01  0.0000E+00  9.0
      -13    1    1    2    0    0 -1.96080026820E+02  1.52896813210E+02  6.33979846920E+02  6.80995792851E+02  1.05700000000E-01  0.0000E+00  9.0
</event>
<event>
 4    1   7.6478753E-02   1.0010000E+03  -1.0000000E+00   9.4080000E-02
        2   -1    0    0  500    0  0.00000000000E+00  0.00000000000E+00  2.88805114780E+03  2.88805114780E+03  0.00000000000E+00  0.0000E+00  9.0
       -2   -1    0    0    0  500  0.00000000000E+00  0.00000000000E+00 -8.67960758870E+01  8.67960758870E+01  0.00000000000E+00  0.0000E+00  9.0
       13    1    1    2    0    0  2.46701093910E+02  2.36545332080E+02  3.13697200150E+02  4.63919247736E+02  1.05700000000E-01  0.0000E+00  9.0
      -13    1    1    2    0    0 -2.46701093910E+02 -2.36545332080E+02  2.48755787180E+03  2.51092797599E+03  1.05700000000E-01  0.0000E+00  9.0
</event>
<event>
 4    1   7.6478753E-02   1.0150000E+03  -1.0000000E+00   9.3930000E-02
        2   -1    0    0  500    0  0.00000000000E+00  0.00000000000E+00  7.59419417420E+02  7.59419417420E+02  0.00000000000E+00  0.0000E+00  9.0
       -2   -1    0    0    0  500  0.00000000000E+00  0.00000000000E+00 -3.39365826540E+02  3.39365826540E+02  0.00000000000E+00  0.0000E+00  9.0
       13    1    1    2    0    0 -6.99402491290E+01  1.26531958170E+02  7.36669658390E+02  7.50722433161E+02  1.05700000000E-01  0.0000E+00  9.0
      -13    1    1    2    0    0  6.99402491290E+01 -1.26531958170E+02 -3.16616067510E+02  3.48062810804E+02  1.05700000000E-01  0.0000E+00  9.0
</event>
<event>
 4    1   7.6478753E-02   9.8910000E+02  -1.0000000E+00   9.4220000E-02
       -1   -1    0    0    0  500  0.00000000000E+00  0.00000000000E+00  2.43779725740E+02  2.43779725740E+02  0.00000000000E+00  0.0000E+00  9.0
        1   -1    0    0  500    0  0.00000000000E+00  0.00000000000E+00 -1.00323473660E+03  1.00323473660E+03  0.00000000000E+00  0.0000E+00  9.0
       13    1    1    2    0    0  1.90270970390E+02 -4.54798721800E+02 -4.28936268340E+02  6.53476283421E+02  1.05700000000E-01  0.0000E+00  9.0
      -13    1    1    2    0    0 -1.90270970390E+02  4.54798721800E+02 -3.30518742560E+02  5.93538178957E+02  1.05700000000E-01  0.0000E+00  9.0
</event>
<event>
 4    1   7.6478753E-02   9.8650000E+02  -1.0000000E+00   9.4250000E-02
       -1   -1    0    0    0  500  0.00000000000E+00  0.00000000000E+00  1.07823677220E+02  1.07823677220E+02  0.00000000000E+00  0.0000E+00  9.0
        1   -1    0    0  500    0  0.00000000000E+00  0.00000000000E+00 -2.25622878490E+03  2.25622878490E+03  0.00000000000E+00  0.0000E+00  9.0
       13    1    1    2    0    0 -1.13148135980E+02 -4.63033863590E+01  7.09369956250E+01  1.41345579290E+02  1.05700000000E-01  0.0000E+00  9.0
      -13    1    1    2    0    0  1.13148135980E+02  4.63033863590E+01 -2.21934210330E+03  2.22270688282E+03  1.05700000000E-01  0.0000E+00  9.0
</event>
<event>
 4    1   7.6478753E-02   9.9620000E+02  -1.0000000E+00   9.4140000E-02
       -2   -1    0    0    0  500  0.00000000000E+00  0.00000000000E+00  1.40489994800E+02  1.40489994800E+02  0.00000000000E+00  0.0000E+00  9.0
        2   -1    0    0  500    0  0.00000000000E+00  0.00000000000E+00 -1.76612443320E+03  1.76612443320E+03  0.00000000000E+00  0.0000E+00  9.0
       13    1    1    2    0    0 -2.64597637290E+02 -3.01538333460E+02 -1.37791255870E+03  1.43512379494E+03  1.05700000000E-01  0.0000E+00  9.0
      -13    1    1    2    0    0  2.64597637290E+02  3.01538333460E+02 -2.47721879670E+02  4.71490633041E+02  1.05700000000E-01  0.0000E+00  9.0
</event>
<event>
 4    1   7.6478753E-02   1.0020000E+03  -1.0000000E+00   9.4070000E-02
        1   -1    0    0  500    0  0.00000000000E+00  0.00000000000E+00  5.55226199310E+02  5.55226199310E+02  0.00000000000E+00  0.0000E+00  9.0
       -1   -1    0    0    0  500  0.00000000000E+00  0.00000000000E+00 -4.52409642050E+02  4.52409642050E+02  0.00000000000E+00  0.0000E+00  9.0
       13    1    1    2    0    0  3.16342685400E+02  2.96007613010E+02  3.04715465620E+02  5.29664731435E+02  1.05700000000E-01  0.0000E+00  9.0
      -13    1    1    2    0    0 -3.16342685400E+02 -2.96007613010E+02 -2.01898908360E+02  4.77971109938E+02  1.05700000000E-01  0.0000E+00  9.0
</event>
<event>
 4    1   7.6478753E-02   9.8940000E+02  -1.0000000E+00   9.4210000E-02
       -1   -1    0    0    0  500  0.00000000000E+00  0.00000000000E+00  3.56295261690E+02  3.56295261690E+02  0.00000000000E+00  0.0000E+00  9.0
        1   -1    0    0  500    0  0.00000000000E+00  0.00000000000E+00 -6.86853088130E+02  6.86853088130E+02  0.00000000000E+00  0.0000E+00  9.0
       13    1    1    2    0    0  9.09547102200E+01  3.31894881360E+01  3.46208037580E+02  3.59491749407E+02  1.05700000000E-01  0.0000E+00  9.0
      -13    1    1    2    0    0 -9.09547102200E+01 -3.31894881360E+01 -6.76765864010E+02  6.83656600418E+02  1.05700000000E-01  0.0000E+00  9.0
</event>
<event>
 4    1   7.6478753E-02   1.0020000E+03  -1.0000000E+00   9.4080000E-02
        1   -1    0    0  500    0  0.00000000000E+00  0.00000000000E+00  1.21224204290E+03  1.21224204290E+03  0.00000000000E+00  0.0000E+00  9.0
       -1   -1    0    0    0  500  0.00000000000E+00  0.00000000000E+00 -2.07025739220E+02  2.07025739220E+02  0.00000000000E+00  0.0000E+00  9.0
       13    1    1    2    0    0 -3.74796439800E+02 -1.41154420430E+02  7.63077533740E+01  4.07700657457E+02  1.05700000000E-01  0.0000E+00  9.0
      -13    1    1    2    0    0  3.74796439800E+02  1.41154420430E+02  9.28908550260E+02  1.01156712462E+03  1.05700000000E-01  0.0000E+00  9.0
</event>
<event>
 4    1   7.6478753E-02   9.9880000E+02  -1.0000000E+00   9.4110000E-02
        2   -1    0    0  500    0  0.00000000000E+00  0.00000000000E+00  2.16227983630E+03  2.16227983630E+03  0.00000000000E+00  0.0000E+00  9.0
       -2   -1    0    0    0  500  0.00000000000E+00  0.00000000000E+00 -1.15338627410E+02  1.15338627410E+02  0.00000000000E+00  0.0000E+00  9.0
       13    1    1    2    0    0  3.32404971010E+02 -1.63105042350E+02  2.59293955420E+02  4.52028412914E+02  1.05700000000E-01  0.0000E+00  9.0
      -13    1    1    2    0    0 -3.32404971010E+02  1.63105042350E+02  1.78764725350E+03  1.82559005084E+03  1.05700000000E-01  0.0000E+00  9.0
</event>
<event>
 4    1   7.6478753E-02   1.0080000E+03  -1.0000000E+00   9.4010000E-02
        3   -1    0    0  500    0  0.00000000000E+00  0.00000000000E+00  1.71786998410E+03  1.71786999574E+03  2.00000000000E-01  0.0000E+00  9.0
       -3   -1    0    0    0  500  0.00000000000E+00  0.00000000000E+00 -1.47905742780E+02  1.47905878001E+02  2.00000000000E-01  0.0000E+00  9.0
       13    1    1    2    0    0 -5.00813288190E+02  4.72043699990E+01  8.44687975660E+02  9.83127656803E+02  1.05700000000E-01  0.0000E+00  9.0
      -13    1    1    2    0    0  5.00813288190E+02 -4.72043699990E+01  7.25276265650E+02  8.82648216937E+02  1.05700000000E-01  0.0000E+00  9.0
</event>
<event>
 4    1   7.6478753E-02   1.0210000E+03  -1.0000000E+00   9.3870000E-02
       -1   -1    0    0    0  500  0.00000000000E+00  0.00000000000E+00  1.74557581020E+02  1.74557581020E+02  0.00000000000E+00  0.0000E+00  9.0
        1   -1    0    0  500    0  0.00000000000E+00  0.00000000000E+00 -1.49275815240E+03  1.49275815240E+03  0.00000000000E+00  0.0000E+00  9.0
       13    1    1    2    0    0 -1.47731271480E+02  1.80659104500E+02 -1.40053565800E+03  1.41984590048E+03  1.05700000000E-01  0.0000E+00  9.0
      -13    1    1    2    0    0  1.47731271480E+02 -1.80659104500E+02  8.23350865370E+01  2.47469833029E+02  1.05700000000E-01  0.0000E+00  9.0
</event>
<event>
 4    1   7.6478753E-02   9.9370000E+02  -1.0000000E+00   9.4170000E-02
        1   -1    0    0  500    0  0.00000000000E+00  0.00000000000E+00  5.96322898680E+02  5.96322898680E+02  0.00000000000E+00  0.0000E+00  9.0
       -1   -1    0    0    0  500  0.00000000000E+00  0.00000000000E+00 -4.14007490790E+02  4.14007490790E+02  0.00000000000E+00  0.0000E+00  9.0
       13    1    1    2    0    0 -3.81358814340E+02 -2.93152186650E+02  2.17772914120E+02  5.28013070964E+02  1.05700000000E-01  0.0000E+00  9.0
      -13    1    1    2    0    0  3.81358814340E+02  2.93152186650E+02 -3.54575062320E+01  4.82317318508E+02  1.05700000000E-01  0.0000E+00  9.0
</event>
<event>
 4    1   7.6478753E-02   1.0020000E+03  -1.0000000E+00   9.4080000E-02
       -1   -1    0    0    0  500  0.00000000000E+00  0.00000000000E+00  6.88342177080E+01  6.88342177080E+01  0.00000000000E+00  0.0000E+00  9.0
        1   -1    0    0  500    0  0.00000000000E+00  0.00000000000E+00 -3.64706728130E+03  3.64706728130E+03  0.00000000000E+00  0.0000E+00  9.0
       13    1    1    2    0    0 -4.65227263740E+02  1.84147587130E+02 -1.69126911540E+03  1.76372842939E+03  1.05700000000E-01  0.0000E+00  9.0
      -13    1    1    2    0    0  4.65227263740E+02 -1.84147587130E+02 -1.88696394820E+03  1.95217306962E+03  1.05700000000E-01  0.0000E+00  9.0
</event>
<event>
 4    1   7.6478753E-02   9.9760000E+02  -1.0000000E+00   9.4120000E-02
        1   -1    0    0  500    0  0.00000000000E+00  0.00000000000E+00  2.09991686570E+03  2.09991686570E+03  0.00000000000E+00  0.0000E+00  9.0
       -1   -1    0    0    0  500  0.00000000000E+00  0.00000000000E+00 -1.18474912610E+02  1.18474912610E+02  0.00000000000E+00  0.0000E+00  9.0
       13    1    1    2    0    0 -1.33490367850E+02 -1.26780509260E+02 -4.01555059100E+01  1.88428903474E+02  1.05700000000E-01  0.0000E+00  9.0
      -13    1    1    2    0    0  1.33490367850E+02  1.26780509260E+02  2.02159745900E+03  2.02996287484E+03  1.05700000000E-01  0.0000E+00  9.0
</event>
<event>
 4    1   7.6478753E-02   1.0020000E+03  -1.0000000E+00   9.4080000E-02
       -1   -1    0    0    0  500  0.00000000000E+00  0.00000000000E+00  8.91718814830E+01  8.91718814830E+01  0.00000000000E+00  0.0000E+00  9.0
        1   -1    0    0  500    0  0.00000000000E+00  0.00000000000E+00 -2.81492976430E+03  2.81492976430E+03  0.00000000000E+00  0.0000E+00  9.0
       13    1    1    2    0    0 -2.11018562390E+02  7.79332353110E+00 -2.67965862140E+03  2.68796575647E+03  1.05700000000E-01  0.0000E+00  9.0
      -13    1    1    2    0    0  2.11018562390E+02 -7.79332353110E+00 -4.60992613990E+01  2.16135889289E+02  1.05700000000E-01  0.0000E+00  9.0
</event>
<event>
 4    1   7.6478753E-02   9.9950000E+02  -1.0000000E+00   9.4100000E-02
        1   -1    0    0  500    0  0.00000000000E+00  0.00000000000E+00  1.36795953680E+03  1.36795953680E+03  0.00000000000E+00  0.0000E+00  9.0
       -1   -1    0    0    0  500  0.00000000000E+00  0.00000000000E+00 -1.82586976660E+02  1.82586976660E+02  0.00000000000E+00  0.0000E+00  9.0
       13    1    1    2    0    0 -1.48663766900E+02  2.88068152130E+02  2.62291947470E+00  3.24177523495E+02  1.05700000000E-01  0.0000E+00  9.0
      -13    1    1    2    0    0  1.48663766900E+02 -2.88068152130E+02  1.18274964070E+03  1.22636898999E+03  1.05700000000E-01  0.0000E+00  9.0
</event>
<event>
 4    1   7.6478753E-02   1.0020000E+03  -1.0000000E+00   9.4080000E-02
        1   -1    0    0  500    0  0.00000000000E+00  0.00000000000E+00  4.90658993850E+02  4.90658993850E+02  0.00000000000E+00  0.0000E+00  9.0
       -1   -1    0    0    0  500  0.00000000000E+00  0.00000000000E+00 -5.11240196580E+02  5.11240196580E+02  0.00000000000E+00  0.0000E+00  9.0
       13    1    1    2    0    0 -2.93520455540E+02  3.23495516700E+02  2.34793729090E+02  4.95915026530E+02  1.05700000000E-01  0.0000E+00  9.0
      -13    1    1    2    0    0  2.93520455540E+02 -3.23495516700E+02 -2.55374931820E+02  5.05984163902E+02  1.05700000000E-01  0.0000E+00  9.0
</event>
<event>
 4    1   7.6478753E-02   9.9360000E+02  -1.0000000E+00   9.4170000E-02
       -1   -1    0    0    0  500  0.00000000000E+00  0.00000000000E+00  5.35931878750E+02  5.35931878750E+02  0.00000000000E+00  0.0000E+00  9.0
        1   -1    0    0  500    0  0.00000000000E+00  0.00000000000E+00 -4.60510012590E+02  4.60510012590E+02  0.00000000000E+00  0.0000E+00  9.0
       13    1    1    2    0    0 -2.53850535200E+02 -4.27002647710E+02  4.32612646440E+01  4.98641056837E+02  1.05700000000E-01  0.0000E+00  9.0
      -13    1    1    2    0    0  2.53850535200E+02  4.27002647710E+02  3.21606015190E+01  4.97800834506E+02  1.05700000000E-01  0.0000E+00  9.0
</event>
<event>
 4    1   7.6478753E-02   9.9840000E+02  -1.0000000E+00   9.4120000E-02
       -2   -1    0    0    0  500  0.00000000000E+00  0.00000000000E+00  1.96664361400E+02  1.96664361400E+02  0.00000000000E+00  0.0000E+00  9.0
        2   -1    0    0  500    0  0.00000000000E+00  0.00000000000E+00 -1.26705600900E+03  1.26705600900E+03  0.00000000000E+00  0.0000E+00  9.0
       13    1    1    2    0    0  1.95160857710E+01 -1.38870650120E+02 -1.23758292560E+03  1.24550288798E+03  1.05700000000E-01  0.0000E+00  9.0
      -13    1    1    2    0    0 -1.95160857710E+01  1.38870650120E+02  1.67191277930E+02  2.18217482473E+02  1.05700000000E-01  0.0000E+00  9.0
</event>
<event>
 4    1   7.6478753E-02   1.0020000E+03  -1.0000000E+00   9.4080000E-02
        1   -1    0    0  500    0  0.00000000000E+00  0.00000000000E+00  1.38330171670E+02  1.38330171670E+02  0.00000000000E+00  0.0000E+00  9.0
       -1   -1    0    0    0  500  0.00000000000E+00  0.00000000000E+00 -1.81338362400E+03  1.81338362400E+03  0.00000000000E+00  0.0000E+00  9.0
       13    1    1    2    0    0 -2.90910838610E+02 -3.70563342060E+01 -1.62860339200E+03  1.65479645502E+03  1.05700000000E-01  0.0000E+00  9.0
      -13    1    1    2    0    0  2.90910838610E+02  3.70563342060E+01 -4.64500603790E+01  2.96917340698E+02  1.05700000000E-01  0.0000E+00  9.0
</event>
</LesHouchesEvents>
